{
    "cas_no": "13239-97-9",
    "key_name": "2-Thiocytidine",
    "cn_name": null,
    "alternate_name": "Cytidine, 2-thio-;2(1<em>H</em>)-Pyrimidinethione, 4-amino-1-β-<span class=\"text-smallcaps\">D</span>-ribofuranosyl-;2-Thiocytidine",
    "duplicated_cas_no": "",
    "SMILES": "O[C@H]1[C@@H](O[C@H](CO)[C@H]1O)N2C(=S)N=C(N)C=C2",
    "meta_data": {
        "InChI": "InChI=1S/C9H13N3O4S/c10-5-1-2-12(9(17)11-5)8-7(15)6(14)4(3-13)16-8/h1-2,4,6-8,13-15H,3H2,(H2,10,11,17)/t4-,6-,7-,8-/m1/s1",
        "InChIKey": null,
        "Canonical SMILES": "S=C1N=C(N)C=CN1C2OC(CO)C(O)C2O",
        "Molecular Formula": "C<sub>9</sub>H<sub>13</sub>N<sub>3</sub>O<sub>4</sub>S",
        "Molecular Mass": "259.28",
        "Melting Point": "208-209 °C"
    }
}