{
    "cas_no": "685-73-4",
    "key_name": "<span class=\"text-smallcaps\">D</span>-Galacturonic acid",
    "cn_name": null,
    "alternate_name": "<span class=\"text-smallcaps\">D</span>-Galacturonic acid;Galacturonic acid, <span class=\"text-smallcaps\">D</span>-;Galacturonic acid;NSC 212542",
    "duplicated_cas_no": "11100-11-1;444336-16-7;96290-55-0",
    "SMILES": "[C@@H]([C@@H]([C@H](C=O)O)O)([C@@H](C(O)=O)O)O",
    "meta_data": {
        "InChI": "InChI=1S/C6H10O7/c7-1-2(8)3(9)4(10)5(11)6(12)13/h1-5,8-11H,(H,12,13)/t2-,3+,4+,5-/m0/s1",
        "InChIKey": null,
        "Canonical SMILES": "O=CC(O)C(O)C(O)C(O)C(=O)O",
        "Molecular Formula": "C<sub>6</sub>H<sub>10</sub>O<sub>7</sub>",
        "Molecular Mass": "194.14",
        "Melting Point": "166 °C"
    }
}