{
    "cas_no": "507-16-4",
    "key_name": "Thionyl bromide",
    "cn_name": "二溴亚砜;亚硫酰溴;",
    "alternate_name": "Thionyl bromide;Sulfur bromide oxide (SOBr<sub>2</sub>)",
    "duplicated_cas_no": "",
    "SMILES": "S(Br)(Br)=O",
    "meta_data": {
        "InChI": "InChI=1S/Br2OS/c1-4(2)3",
        "InChIKey": null,
        "Canonical SMILES": "O=S(Br)Br",
        "Molecular Formula": "Br<sub>2</sub>OS",
        "Molecular Mass": "207.87",
        "Boiling Point": "30-33 °C @ Press: 13 Torr"
    }
}