{
    "cas_no": "19241-17-9",
    "key_name": "4-Isothiocyanato-1,2-dimethylbenzene",
    "cn_name": "3,4-二甲基苯基异硫氰酸酯;",
    "alternate_name": "Benzene, 4-isothiocyanato-1,2-dimethyl-;Isothiocyanic acid, 3,4-xylyl ester;4-Isothiocyanato-1,2-dimethylbenzene;3,4-Dimethylphenyl isothiocyanate",
    "duplicated_cas_no": "",
    "SMILES": "N(=C=S)C1=CC(C)=C(C)C=C1",
    "meta_data": {
        "InChI": "InChI=1S/C9H9NS/c1-7-3-4-9(10-6-11)5-8(7)2/h3-5H,1-2H3",
        "InChIKey": null,
        "Canonical SMILES": "S=C=NC1=CC=C(C(=C1)C)C",
        "Molecular Formula": "C<sub>9</sub>H<sub>9</sub>NS",
        "Molecular Mass": "163.24",
        "Boiling Point": "263-264 °C",
        "Melting Point": "74-76 °C"
    }
}