{
    "cas_no": "65169-64-4",
    "key_name": "2-Amino-6-methyl-4-pyridinecarboxylic acid",
    "cn_name": null,
    "alternate_name": "4-Pyridinecarboxylic acid, 2-amino-6-methyl-;2-Amino-6-methyl-4-pyridinecarboxylic acid;2-Amino-6-methylisonicotinic acid",
    "duplicated_cas_no": "",
    "SMILES": "C(O)(=O)C=1C=C(C)N=C(N)C1",
    "meta_data": {
        "InChI": "InChI=1S/C7H8N2O2/c1-4-2-5(7(10)11)3-6(8)9-4/h2-3H,1H3,(H2,8,9)(H,10,11)",
        "InChIKey": null,
        "Canonical SMILES": "O=C(O)C=1C=C(N=C(C1)C)N",
        "Molecular Formula": "C<sub>7</sub>H<sub>8</sub>N<sub>2</sub>O<sub>2</sub>",
        "Molecular Mass": "152.15",
        "Melting Point": "250 °C"
    }
}