{
    "cas_no": "629-19-6",
    "key_name": "Dipropyl disulfide",
    "cn_name": "二丙基二硫;二丙基二硫醚;",
    "alternate_name": "Disulfide, dipropyl;Propyl disulfide;Dipropyl disulfide;4,5-Dithiaoctane;Di-<em>n</em>-propyl disulfide;<em>n</em>-Propyl disulfide;NSC 75122;1-(Propyldisulfanyl)propane",
    "duplicated_cas_no": "",
    "SMILES": "S(SCCC)CCC",
    "meta_data": {
        "InChI": "InChI=1S/C6H14S2/c1-3-5-7-8-6-4-2/h3-6H2,1-2H3",
        "InChIKey": null,
        "Canonical SMILES": "S(SCCC)CCC",
        "Molecular Formula": "C<sub>6</sub>H<sub>14</sub>S<sub>2</sub>",
        "Molecular Mass": "150.31",
        "Boiling Point": "193.5 °C",
        "Melting Point": "-85.6 °C",
        "Density": "0.9525 g/cm³ @ Temp: 20 °C"
    }
}