{
    "cas_no": "118263-97-1",
    "key_name": "1-Methyl-2,4-piperidinedione",
    "cn_name": null,
    "alternate_name": "2,4-Piperidinedione, 1-methyl-;1-Methyl-2,4-piperidinedione",
    "duplicated_cas_no": "",
    "SMILES": "O=C1N(C)CCC(=O)C1",
    "meta_data": {
        "InChI": "InChI=1S/C6H9NO2/c1-7-3-2-5(8)4-6(7)9/h2-4H2,1H3",
        "InChIKey": null,
        "Canonical SMILES": "O=C1N(C)CCC(=O)C1",
        "Molecular Formula": "C<sub>6</sub>H<sub>9</sub>NO<sub>2</sub>",
        "Molecular Mass": "127.14",
        "Melting Point": "168-170 °C"
    }
}