{
    "cas_no": "472-70-8",
    "key_name": "Cryptoxanthin",
    "cn_name": "隐黄质;",
    "alternate_name": "β,β-Caroten-3-ol, (3<em>R</em>)-;β-Caroten-3-ol, (<em>R</em>)-<em>all</em>-<em>trans</em>-;Neo-β-cryptoxanthin;(3<em>R</em>)-β,β-Caroten-3-ol;β-Cryptoxanthin, <em>all</em>-<em>trans</em>-;β-Cryptoxanthin;Cryptoxanthin;Cryptoxanthol;Neocryptoxanthin, <em>all</em>-<em>trans</em>-;Neocryptoxanthol, <em>all</em>-<em>trans</em>-;Cryptoxanthine;Cryptoxanthin, <em>all</em>-<em>trans</em>-;Cryptoxanthol, <em>all</em>-<em>trans</em>-;Kryptoxanthin;Xanthrophyll 1;3-Hydroxy-β-carotene;<em>trans</em>-Cryptoxanthin;Caricaxanthin;<em>all</em>-<em>trans</em>-β-Cryptoxanthin;<em>all</em>-<em>trans</em>-Cryptoxanthin;(3<em>R</em>)-Cryptoxanthin;(3<em>R</em>)-β-Cryptoxanthin;E 161c;<em>trans</em>-β-Crytoxanthin;Paprika carotene;CRP 015",
    "duplicated_cas_no": "1638-03-5;22004-24-6;28368-05-0;34182-32-6",
    "SMILES": "C(=C/C(=C/C=C/C(=C/C=C/C=C(/C=C/C=C(/C=C/C=1C(C)(C)CCCC1C)\\C)\\C)/C)/C)\\C=2C(C)(C)C[C@H](O)CC2C",
    "meta_data": {
        "InChI": "InChI=1S/C40H56O/c1-30(18-13-20-32(3)23-25-37-34(5)22-15-27-39(37,7)8)16-11-12-17-31(2)19-14-21-33(4)24-26-38-35(6)28-36(41)29-40(38,9)10/h11-14,16-21,23-26,36,41H,15,22,27-29H2,1-10H3/b12-11+,18-13+,19-14+,25-23+,26-24+,30-16+,31-17+,32-20+,33-21+/t36-/m1/s1",
        "InChIKey": null,
        "Canonical SMILES": "OC1CC(=C(C=CC(=CC=CC(=CC=CC=C(C=CC=C(C=CC2=C(C)CCCC2(C)C)C)C)C)C)C(C)(C)C1)C",
        "Molecular Formula": "C<sub>40</sub>H<sub>56</sub>O",
        "Molecular Mass": "552.87",
        "Melting Point": "160 °C"
    }
}