{
    "cas_no": "85175-59-3",
    "key_name": "3-(3-Chloropropyl)-1,3-dihydro-7,8-dimethoxy-2<em>H</em>-3-benzazepin-2-one",
    "cn_name": null,
    "alternate_name": "2<em>H</em>-3-Benzazepin-2-one, 3-(3-chloropropyl)-1,3-dihydro-7,8-dimethoxy-;3-(3-Chloropropyl)-1,3-dihydro-7,8-dimethoxy-2<em>H</em>-3-benzazepin-2-one;3-(3-Chloropropyl)-7,8-dimethoxy-1<em>H</em>-3-benzazepin-2(3<em>H</em>)-one;7,8-Dimethoxy-3-(3-chloropropyl)-1,3-dihydro-2<em>H</em>-3-benzazepin-2-one",
    "duplicated_cas_no": "",
    "SMILES": "O(C)C=1C=C2C(=CC1OC)CC(=O)N(CCCCl)C=C2",
    "meta_data": {
        "InChI": "InChI=1S/C15H18ClNO3/c1-19-13-8-11-4-7-17(6-3-5-16)15(18)10-12(11)9-14(13)20-2/h4,7-9H,3,5-6,10H2,1-2H3",
        "InChIKey": null,
        "Canonical SMILES": "O=C1N(C=CC=2C=C(OC)C(OC)=CC2C1)CCCCl",
        "Molecular Formula": "C<sub>15</sub>H<sub>18</sub>ClNO<sub>3</sub>",
        "Molecular Mass": "295.76",
        "Melting Point": "100-102 °C"
    }
}