{
    "cas_no": "6020-18-4",
    "key_name": "Coptisine hydrochloride",
    "cn_name": null,
    "alternate_name": "Bis[1,3]benzodioxolo[5,6-<em>a</em>:4′,5′-<em>g</em>]quinolizinium, 6,7-dihydro-, chloride (1:1);Bis[1,3]benzodioxolo[5,6-<em>a</em>:4′,5′-<em>g</em>]quinolizinium, 6,7-dihydro-, chloride;Berbinium, 7,8,13,13a-tetradehydro-2,3:9,10-bis(methylenedioxy)-, chloride;Coptisine chloride;Coptisine hydrochloride",
    "duplicated_cas_no": "",
    "SMILES": "C1=2C=3C(=CC4=C(C3)OCO4)CC[N+]1=CC=5C(C2)=CC=C6C5OCO6.[Cl-]",
    "meta_data": {
        "InChI": "InChI=1S/C19H14NO4.ClH/c1-2-16-19(24-10-21-16)14-8-20-4-3-12-6-17-18(23-9-22-17)7-13(12)15(20)5-11(1)14;/h1-2,5-8H,3-4,9-10H2;1H/q+1;/p-1",
        "InChIKey": null,
        "Canonical SMILES": "[Cl-].O1C=2C=CC3=CC=4C5=CC=6OCOC6C=C5CC[N+]4C=C3C2OC1",
        "Molecular Formula": "C<sub>19</sub>H<sub>14</sub>NO<sub>4</sub>.Cl",
        "Molecular Mass": "",
        "Melting Point": "218 °C"
    }
}