{
    "cas_no": "19780-25-7",
    "key_name": "2-Ethyl-2-butenal",
    "cn_name": "2-乙基丁烯醛;",
    "alternate_name": "2-Butenal, 2-ethyl-;Crotonaldehyde, 2-ethyl-;Crotonaldehyde, α-ethyl-;2-Ethyl-2-butenal;2-Ethylcrotonaldehyde;α-Ethyl-2-butenal",
    "duplicated_cas_no": "",
    "SMILES": "C(CC)(=CC)C=O",
    "meta_data": {
        "InChI": "InChI=1S/C6H10O/c1-3-6(4-2)5-7/h3,5H,4H2,1-2H3",
        "InChIKey": null,
        "Canonical SMILES": "O=CC(=CC)CC",
        "Molecular Formula": "C<sub>6</sub>H<sub>10</sub>O",
        "Molecular Mass": "98.14",
        "Boiling Point": "34-38 °C @ Press: 14 Torr",
        "Density": "0.8723 g/cm³ @ Temp: 15 °C"
    }
}