{
    "cas_no": "14755-02-3",
    "key_name": "<em>trans</em>-3-Hydroxycinnamic acid",
    "cn_name": null,
    "alternate_name": "2-Propenoic acid, 3-(3-hydroxyphenyl)-, (2<em>E</em>)-;Cinnamic acid, <em>m</em>-hydroxy-, (<em>E</em>)-;2-Propenoic acid, 3-(3-hydroxyphenyl)-, (<em>E</em>)-;(2<em>E</em>)-3-(3-Hydroxyphenyl)-2-propenoic acid;<em>trans</em>-3-Hydroxycinnamic acid;<em>trans</em>-<em>m</em>-Coumaric acid;<em>trans</em>-<em>m</em>-Hydroxycinnamic acid;(<em>E</em>)-3-Hydroxycinnamic acid;(<em>E</em>)-3-(3-Hydroxyphenyl)acrylic acid;<em>trans</em>-3-(<em>m</em>-Hydroxyphenyl)-2-propenoic acid;Rans-3-hydroxycinnamic acid;(<em>E</em>)-<em>m</em>-Coumaric acid",
    "duplicated_cas_no": "",
    "SMILES": "C(=C/C(O)=O)\\C1=CC(O)=CC=C1",
    "meta_data": {
        "InChI": "InChI=1S/C9H8O3/c10-8-3-1-2-7(6-8)4-5-9(11)12/h1-6,10H,(H,11,12)/b5-4+",
        "InChIKey": null,
        "Canonical SMILES": "O=C(O)C=CC=1C=CC=C(O)C1",
        "Molecular Formula": "C<sub>9</sub>H<sub>8</sub>O<sub>3</sub>",
        "Molecular Mass": "164.16",
        "Melting Point": "198 °C"
    }
}