{
    "cas_no": "4025-64-3",
    "key_name": "3-(Chlorosulfonyl)benzoic acid",
    "cn_name": "3-氯磺酰基苯甲酸;间氯磺酰基苯甲酸;",
    "alternate_name": "Benzoic acid, 3-(chlorosulfonyl)-;Benzoic acid, <em>m</em>-(chlorosulfonyl)-;3-(Chlorosulfonyl)benzoic acid;3-Carboxyphenylsulfonyl chloride;<em>m</em>-Chlorosulfonylbenzoic acid;3-Carboxybenzenesulfonyl chloride;<em>m</em>-Carboxybenzenesulfonyl chloride;NSC 23778;NSC 44616",
    "duplicated_cas_no": "",
    "SMILES": "S(Cl)(=O)(=O)C1=CC(C(O)=O)=CC=C1",
    "meta_data": {
        "InChI": "InChI=1S/C7H5ClO4S/c8-13(11,12)6-3-1-2-5(4-6)7(9)10/h1-4H,(H,9,10)",
        "InChIKey": null,
        "Canonical SMILES": "O=C(O)C1=CC=CC(=C1)S(=O)(=O)Cl",
        "Molecular Formula": "C<sub>7</sub>H<sub>5</sub>ClO<sub>4</sub>S",
        "Molecular Mass": "220.63",
        "Melting Point": "131 °C"
    }
}