{
    "cas_no": "17306-05-7",
    "key_name": "(Chloroethenylmethylsilyl)benzene",
    "cn_name": "甲基苯基乙烯基氯硅烷;",
    "alternate_name": "Benzene, (chloroethenylmethylsilyl)-;Silane, chloromethylphenylvinyl-;Silane, chloroethenylmethylphenyl-;(Chloroethenylmethylsilyl)benzene;Phenyl(vinyl)methyl(chloro)silane;Chloromethylphenylvinylsilane;Vinylmethyl(phenyl)chlorosilane",
    "duplicated_cas_no": "",
    "SMILES": "[Si](C=C)(C)(Cl)C1=CC=CC=C1",
    "meta_data": {
        "InChI": "InChI=1S/C9H11ClSi/c1-3-11(2,10)9-7-5-4-6-8-9/h3-8H,1H2,2H3",
        "InChIKey": null,
        "Canonical SMILES": "Cl[Si](C=C)(C=1C=CC=CC1)C",
        "Molecular Formula": "C<sub>9</sub>H<sub>11</sub>ClSi",
        "Molecular Mass": "182.72",
        "Boiling Point": "79-80 °C @ Press: 3-4 Torr",
        "Density": "1.034 g/cm³"
    }
}