{
    "cas_no": "4696-76-8",
    "key_name": "Kanamycin B",
    "cn_name": "卡那霉素B;",
    "alternate_name": "<span class=\"text-smallcaps\">D</smallcap>-Streptamine, <em>O</em>-3-amino-3-deoxy-α-<smallcap>D</smallcap>-glucopyranosyl-(1→6)-<em>O</em>-[2,6-diamino-2,6-dideoxy-α-<smallcap>D</span>-glucopyranosyl-(1→4)]-2-deoxy-;Kanamycin B;<em>O</em>-3-Amino-3-deoxy-α-<span class=\"text-smallcaps\">D</smallcap>-glucopyranosyl-(1→6)-<em>O</em>-[2,6-diamino-2,6-dideoxy-α-<smallcap>D</smallcap>-glucopyranosyl-(1→4)]-2-deoxy-<smallcap>D</span>-streptamine;Kanendomycin;Aminodeoxykanamycin;2′-Amino-2′-deoxykanamycin;Bekanamycin;KDM;NK 1006;Nebramycin V;Nebramycin factor 5;Beckanamycin",
    "duplicated_cas_no": "25100-46-3;37321-11-2",
    "SMILES": "O([C@H]1[C@H](O)[C@@H](O[C@H]2O[C@H](CO)[C@@H](O)[C@H](N)[C@H]2O)[C@H](N)C[C@@H]1N)[C@H]3O[C@H](CN)[C@@H](O)[C@H](O)[C@H]3N",
    "meta_data": {
        "InChI": "InChI=1S/C18H37N5O10/c19-2-6-11(26)12(27)9(23)17(30-6)32-15-4(20)1-5(21)16(14(15)29)33-18-13(28)8(22)10(25)7(3-24)31-18/h4-18,24-29H,1-3,19-23H2/t4-,5+,6+,7+,8-,9+,10+,11+,12+,13+,14-,15+,16-,17+,18+/m0/s1",
        "InChIKey": null,
        "Canonical SMILES": "OCC1OC(OC2C(O)C(OC3OC(CN)C(O)C(O)C3N)C(N)CC2N)C(O)C(N)C1O",
        "Molecular Formula": "C<sub>18</sub>H<sub>37</sub>N<sub>5</sub>O<sub>10</sub>",
        "Molecular Mass": "483.51",
        "Melting Point": "178-182 °C (decomp)"
    }
}