{
    "cas_no": "5272-36-6",
    "key_name": "3-(Trimethylsilyl)-2-propyn-1-ol",
    "cn_name": "3-三甲硅基-2-丙炔-1-醇;",
    "alternate_name": "2-Propyn-1-ol, 3-(trimethylsilyl)-;3-(Trimethylsilyl)-2-propyn-1-ol;(3-Hydroxy-1-propynyl)trimethylsilane;3-(Trimethylsilyl)propargyl alcohol;1-(Trimethylsilyl)-1-propyn-3-ol;Hydroxymethyl(trimethylsilyl)acetylene;NSC 617397;Trimethylsilylpropargyl alcohol;3-Trimethylsilylyprop-2-ynol",
    "duplicated_cas_no": "",
    "SMILES": "C([Si](C)(C)C)#CCO",
    "meta_data": {
        "InChI": "InChI=1S/C6H12OSi/c1-8(2,3)6-4-5-7/h7H,5H2,1-3H3",
        "InChIKey": null,
        "Canonical SMILES": "OCC#C[Si](C)(C)C",
        "Molecular Formula": "C<sub>6</sub>H<sub>12</sub>OSi",
        "Molecular Mass": "128.24",
        "Boiling Point": "170-172 °C",
        "Melting Point": "63.5-65.0 °C",
        "Density": "0.875 g/cm³"
    }
}