{
    "cas_no": "9004-65-3",
    "key_name": "Hydroxypropyl methyl cellulose",
    "cn_name": null,
    "alternate_name": "Cellulose, 2-hydroxypropyl methyl ether;Hydroxypropyl methyl cellulose ether;Methocel X 2602;Methyl hydroxypropyl cellulose;Cellulose hydroxypropyl methyl ether;Methocel HG 65;Methocel HG 60;Methofas PM;Methocel HG;Courlose HPM;Methocel J 12HS;Methocel HG 90;2-Hydroxypropyl methyl cellulose;Methofas PM 4500;Celacol HPM 450;Methocel E;Methocel F;Methocel K;Pharmacoat 603;Methocel 60HG4000;Celacol HPM 5000;HPMC 20000PV;Pharmacoat 606;TC 5R;Methocel XD 1214;Methocel XD 1214.44;Methocel HG 228;Methocel K 4M Premium;Methocel K 4M;Metolose 90SH4000;Methocel 50;MOPTs;Metolose 60SH50;Methocel 228;Synchron-Oral;Methocel F 4M;Methocel K 15M-DGS;MC 400;Metolose 90SH15000;Methocel E 15;Culminal MHPC;Methocel F 7M;Culminal MHPC 6000;TC 5;Metolose 90SH100;Synchron;Methocel K 100M;Methocel E 5;Methocel J;Methocel E 15LV;Methocel E 50;Methocel K 100;Methocel E 4M;Methocel MK 4;Metolose 90SH30000;Celacol HPM 15000DS;Metolose 65SH50;Methocel J 75MS;Metolose 65SH400;Methocel J 75;Methocel K 15MS;Metolose SH 4000;Hypromellose;Viscontran MHPC 50;Marpolose MP 4000;Metolose 60SH4000;Methocel J 5MS;Methocel F 50;2-Hydroxypropyl methyl cellulose ether;Methocel 90HG40;Walocel MW 60GA;Walocel MK 3.000PF;Culminal MHPC 20000PR;Methocel K 4MS;Metolose 90SH3000;Metolose 65SH4000;Hydroxypropyl methyl cellulose;Marpolose 60MP5;Celacol 15000DS;Methocel K 15M;Metolose 65SH1500;TC 5E;Methofas PM 450;Metolose 90SH15;Metolose 65SH;TC 5 (cellulose derivative);Methocel 90HG;Metolose TC 5;Marpolose 65MP400;Metolose 90SH;HPMC;Methocel E 3;Metolose 60SH03;Methocel 311;Methocel K 100LV;Methocel 240S;Metolose SH;Pharmacoat HPMC 615;Metolose 60SH;Marpolose EMP-H;Viscontran MHPC 6000;Methocel K 35LV;Benecel MP 943W;Methocel 25;Methocel E 10MCR;Cesca HPC 50;Methocel J 75M;Methocel K 5M;Methocel F 50LV;Methocel K 35;Metolose 90SH100000;Benecel MP 363C;Methocel F 40M;Methocel J 12MS;HPMC-K 35LV;Metolose SH 1500;Methocel E 50LG;Culminal 20000PFR;Metolose 605H;Methocel 250S;Methocel E 10M;Metolose 90SH8000;Benecel MP 943;Methocel 20-333;Methocel K 4MCR;Methocel K 15MCR;Methocel J 2MS;Methocel J 75MS-N;Methocel J 4;Methocel J 12M;Methocel J 4M;Methocel J 50;Methocel J 20MS;Metolose 60SH100;Methocel K 4MP;Methocel F 75M;Methocel K 75M;Methocel K 15MP;Methocel F 240;Culminal MHPC 2000S;Methocel 40-202;Metolose 90SH400;Methocel E4 EP;HPM 100DS;DP 1208;DP 1209;Pharmacoat 645;Metolose 65SH100000;EM 1100;EM 1100 (cellulose derivative);Sepifilm LP 010;Methocel 227;Metolose 60SH10000;Methocel 20-231;Methocel E 10;Methocel K 15;Accel R 100;Marpolose 90MP4000;Methocel 4FM-PRG;Methocel F 4MPRG;Methocel 856N;Marpolose 65MP4000;Marpolose 90MP15000;Metolose SH 30000FD;Metolose 90SH4;Noigel 0215H;Metolose 90SH1000000;Metolose SH 60;R 40 (cellulose derivative);R 40;Metolose 60SH15;Metolose SH 90SH;Metolose SH 65SH;60SH4000F;Methocel J 20;Culminal MHPC 4000PFR;Culminal MHPC 20000PFR;Methocel J 5M;90SH15000S;Opadry OY 29020 clear;Metolose 60H06;Methocel 181;Methocel K 3;Metolose SH 30000;Methocel K 4MP-CR;Mecellulose PMC 40U;HPMC 2208;Opadry OY 7240;Metolose SHV-PF;Metolose 60H15;Metolose 50SH15;Benecel MP 9;Benecel MP 3;Metolose SH 5000;K 35LV;60SH4000;TC 5RW;90SH100000;Metolose SHV-P;HPMC 2910E;Culminal MHPC 400;Benecel MP 824;Methocel E 10P;Metolose 60SH25;E 3 Premium;Culminal MHPC 20000P;Metolose 90SH10000;Marpolose 65MP;Marpolose 90MP;Onoda Elcon;Methocel K 3LV;Walocel MK 400PF;Walocel MK 15000PF;Methocel 40-320;Metolose 60SH4000F;Methocel E 6P;Metolose SH 8000;Methocel E 6PLV;Metolose TC 5E;TC 5MW;Methocel 856S;Methocel 90SH;Methocel K 15RPM;Hypromelloc E 5;Methocel M 312;Metolose 65SH15000;Metolose 60SH5;SB 4;SB 4 (cellulose derivative);Methocel K 100LVP;Metolose 60SH3;90SH400;Methocel E 4M Premium;Methocel F 4M Premium;Methocel K 15M Premium;MP 333C;MP 824;Methocel E 5P;Methocel K4MPRCR;E 464;Metolose 60SH1500;Pharmacoat 615;Pharmacoat 904;Nisso-SSL;Nisso-SL;Nisso L;HPMC 2910;Methocel E 5PREM;TC 5S;Methocel SGA 16M;SGA 16M;HPMC-E 50;HPMC-E 15;E 50;E 15;Methocel E 5LV;Methocel F 240M;Methocel K 100M-CR;60RT50;Sepifilm LP;HPMC K 4M;HPMC-K 15M;Methocel 40-100;F 50;K 100;TC-5 RG;Methocel E 6;Mecellose PMA 50L;Hypromellose 2208;Methocel K 100LVCR;HPMC-E 6;Marpolose 90EMP75000;TC 5EW;Quali-V;40US;60SH5;60SH100;90SH100;HPMC-E 5;Methocel Premium LV-E 5;Culminal MHPC 20000;Culminal MHPC 1034R;Hypromellose E 15;Metolose SH 65SH-15;Mecellose PMC 40H1;Methocel K 99;Hypromellose E 5;Methocel E 5Prem LV;Methocel E 3LV;HPMC-K 100M;Methocel E 5 Premium;HPMC-SR;Benecel MP 843;Methocel E 3P;Metolose 60SH6;Methocel 90HC4000;Methocel E 4MP;K 15M;HPMC cellulose;Hypromellose 2910;E 15LV;65SH5;Culminal MHPC 100;Metolose 65SH3000;Metolose 60SH30000;Metolose 90SH100SR;Metolose 60SH06;HPMCE 100;Metolose SR 90SH100000SR;Hypromellose K 100MCR;HPMC 602;HPMC 1657;HG 4000;Spectracel 5FG;Methocel K100M hypromellose;HPMC 2906;Methocel E 50FG;Mecellose PMC 40US;Metolose SE 50;Methocel 10-0073;PM 450;PM 4500;Metolose SR 90SH;Magimix;Metolose 60SH600;65SH-4000;Demacol HE 5/6BV;Tegocel;Methocel 4FM;MHPC;60SH06;Methocel E 4;Tegocel HPM 50;Tegocel HPM 4000;60HD20000;Methocel E 5FG;Methocel F 50FG;Fortefiber;HPMC 90SH4000SR;HPMC 90SH100000SR;HPMC 90SH100SR;Metolose SE 06;Methocel K 1000M;Metolose 90SH4000SR;Metolose 65SH04T;Walocel HM 50PA2910;Walocel HM 6PA2910;Kirin Biopoly;Metolose LE-G;Metolose SH 15000;Hi-Metolose SH 15000;Tegocel Fluid HPM 50;Vcaps;Benecel 324;Benecel 363;Benecel 424;HPMC 70000;Marpolose 60MP4000;Mecellose PMC 15US;Metolose NE 4000;K 100LV;Methocel E 50LV;E 50LV;PMC 40HS;Methocel K 100CR;Walocel HM 100PA2208FG;Neovisco MC HM 4000;Metolose HPMC 4000;Culminal MHPC 1034;Culminal 1034;Methocel E 3 Prem LV;Walocel HM;K 250M;Opadry YS 1-7472;Neovisco MC RM 30000;Metolose 100SH;Metolose 110SH;HPMC-K 4;Methocel E 19;Methocel SX;Metolose 65HS400;Culminal MHPC 500PF;K 4M;K 100M;HPMC E 3LV;Mecellose 40US;HPMC-E 5LV;HPMC 15KM;PMB 40H;Benecel K 35M;Metolose SE 60;Metolose 90SH100000SR;Vcaps Plus;BN 4;Methocel E6 premium;Methocel E 4QG;Methocel E 50P;HPMC 50;60MP4000;J 50;Methocel F 5LV;HPMC 2910 AnyAddy;HPMC 2906 AnyAddy;HPMC 2208 AnyAddy;AW 4;Anyaddy AN 50;Anyaddy BN 40H;Mecellose PMC 40H;Marpolose 90MP200000;Methocel K 100M-DC;Methocel K 4M-DC;HK 15M;Metolose SH 65SH15000;E 5;Methocel K 250M;HPMC 75000S;Methocel 254;Benecel A 4C;Neovisco MC-RM 4000;Methocel 40-202 PCG;Methocel E 3PLV;Methocel F 15AV;Spectracel 15SE;Spectracel 6SE;PMA 15M;Metolose NE 100;Mecellose PMC 50US;Affinisol HPMC 4M;Affinisol HPMC 100;Affinisol 4M;Affinisol 100;Tylose MOBS 3P4;Tylose MOBS 6P4;Metolose SE 03;Benecel E 15;Benecel K 100LV;M 30Q;Methocel F 4C;65HD50;Ruishi HT-F;HT-F;Benecel K 100M;HPMC 100K;Anyaddy CN 40H;AnyCoat-C AN 6;AnyCoat-C BN 4;AnyCoat-C CN 10T;TC-5M;HT-E 15;Metolose SH 10000;HPMC-SE 06;HPMC 500;Goniosol;HD 6100;Metolose 65SH30000;HPMC 30000S;Hypromellose E 3-2910;E 3-2910;E 4M2910;Methocel 350;K 4M-CR;K 15M-CR;K 100MP;E 4MP;E 10MP-CR;E 4M-CR;E 10M-CR;F 4M;OY-LS 28902;Neovisco MC-HM 4000S;Affinisol 15cP;65SH50;MH-K 100;Methocel HPMC;Metolose SR 90SH15000SR;Metolose SFE 50;Metolose SFE 400;HPMC 100000S;HPMC 15000;Hypromellose E 3;Metolose 690SH4000SH;35SK;Affinisol HPMC 100LV;HPMC-VLV;Metolose SE 15;Tylose PSO 810001;E 5LV;Metolose 90SH-K15M100SR;Metolose SR 90SH100SR;Anyaddy BN 50;Neovisco MC;Benecel E 4M;HMPC 10000S;CCR 701;FON 50;MP 30000;Walocel MKX 6000;Benecel E 5;Benecel E 50;AnyCoat-C AN 5;Benecel A 15LV;HPMC 80000;75HD400;HPMC 200000S;Hydroxypropylmethylcellulose K 100M;HPMC K 100M;Quali-V-N;60HD50;Methocel E 15 Premium;Methocel K 254;Methocel K 200M;Methocel E 3 Premium LV;Methocel E 50 Premium LV;Methocel E 15 Premium LV;Benecel K 4M-PH-DC;Benecel K 200M;Tylose MOBS 50G4;Marpolose MP 30000;ZW-E 6;ZW-E 15;ZW-E 50;GMC 75XS;Pharmacoat 630;K 15;H 7509;75RT4000;Mecellose PMC 60U;E 4M;Methocel 65SH50;Metolose 65SH5;Hypromellose AW;Hypromellose AW 4;Methocel K 4M-DC2;Methocel K 100M-DC2;Headcel 75HD400;Asentol 75;Asentol 90;90SH15000SR;DN 3722;PMK 2010;75RT30000;Sangelose M;MP 4000;Affinisol HPMC HME 15LV;GMC 5220;PMC 40US;HPK 100M;HF 4000;Methocel E 15FG;Methocel K 99FG;LH 40MR;Metolose TC 5R;Heatsol Soft L;HPMC 100LV;60HD100;HPMC-E 5P;Mecellose PMC 10M;60SH;65SH;90SH;R 4M;USP 2910;Metolose 60SH400;LH 20M;PMK 40Z;Metolose 60SH15000;Methocel DC2 K4M;Methocel DC2 K100M;Methocel E4M CR;HK 40MS;Benecel KM 200;HX 150000;HT-E;FMC 60150;HPMC-PD 200M;HPMC-PD 300M;HEMC-EM 150M;HEMC-EM 100M;HPMC-PD 150M;HEMC-EM 200M;SE 50 (cellulose);HT-K 400;Walocel MKX 25000PF20L;BonuCel D 5 H 2910;Heatsol Soft SL;Heatsol Slow L;Headcel 75HD100;Combizell HK 7M;Combizell HK 4M;Culminal MHPC 5;Hypromellose K 4M;Hypromellose K 15M;Hypromellose 6CPS",
    "duplicated_cas_no": "8063-82-9;11106-33-5;12673-53-9;37341-76-7;39363-71-8;59029-31-1;62683-26-5;65607-39-8;68073-10-9;71373-07-4;98112-80-2;125053-98-7;125857-43-4;137397-89-8;137397-90-1;137397-91-2;171544-38-0;173080-61-0;194615-25-3;876407-53-3;1262284-64-9;2227180-04-1;2258661-54-8;2376293-65-9;2738514-21-9",
    "SMILES": "",
    "meta_data": {
        "InChI": "",
        "InChIKey": null,
        "Canonical SMILES": "",
        "Molecular Formula": "C<sub>3</sub>H<sub>8</sub>O<sub>2</sub>.xCH<sub>4</sub>O.xUnspecified",
        "Molecular Mass": "",
        "Melting Point": "225-230 °C",
        "Density": "1.326 g/cm³"
    }
}