{
    "cas_no": "604-19-3",
    "key_name": "6β-Hydroxyprogesterone",
    "cn_name": null,
    "alternate_name": "Pregn-4-ene-3,20-dione, 6-hydroxy-, (6β)-;Pregn-4-ene-3,20-dione, 6β-hydroxy-;Progesterone, 6β-hydroxy-;(6β)-6-Hydroxypregn-4-ene-3,20-dione;6β-Hydroxypregn-4-ene-3,20-dione;6β-Hydroxyprogesterone;6β-Hydroxypregn-4-en-3,20-dione;4-Pregnen-6β-ol-3,20-dione;U 27605",
    "duplicated_cas_no": "",
    "SMILES": "C[C@@]12[C@@]3([C@]([C@]4([C@](C)(CC3)[C@@H](C(C)=O)CC4)[H])(C[C@@H](O)C1=CC(=O)CC2)[H])[H]",
    "meta_data": {
        "InChI": "InChI=1S/C21H30O3/c1-12(22)15-4-5-16-14-11-19(24)18-10-13(23)6-8-21(18,3)17(14)7-9-20(15,16)2/h10,14-17,19,24H,4-9,11H2,1-3H3/t14-,15+,16-,17-,19+,20+,21+/m0/s1",
        "InChIKey": null,
        "Canonical SMILES": "O=C1C=C2C(O)CC3C(CCC4(C)C(C(=O)C)CCC34)C2(C)CC1",
        "Molecular Formula": "C<sub>21</sub>H<sub>30</sub>O<sub>3</sub>",
        "Molecular Mass": "330.46",
        "Melting Point": "181-183 °C"
    }
}