{
    "cas_no": "55289-36-6",
    "key_name": "3-Bromo-2-methylaniline",
    "cn_name": "3-溴-2-甲基苯胺;2-甲基-3-溴苯胺;2-氨基-6-溴甲苯;",
    "alternate_name": "Benzenamine, 3-bromo-2-methyl-;3-Bromo-2-methylbenzenamine;2-Amino-6-bromotoluene;3-Bromo-2-methylaniline;(3-Bromo-2-methylphenyl)amine;2-Methyl-3-bromoaniline;1-Bromo-2-methyl-3-aminobenzene",
    "duplicated_cas_no": "",
    "SMILES": "CC1=C(Br)C=CC=C1N",
    "meta_data": {
        "InChI": "InChI=1S/C7H8BrN/c1-5-6(8)3-2-4-7(5)9/h2-4H,9H2,1H3",
        "InChIKey": null,
        "Canonical SMILES": "BrC1=CC=CC(N)=C1C",
        "Molecular Formula": "C<sub>7</sub>H<sub>8</sub>BrN",
        "Molecular Mass": "186.05",
        "Boiling Point": "130 °C @ Press: 16 Torr"
    }
}