{
    "cas_no": "3336-49-0",
    "key_name": "4-Isoquinolinol",
    "cn_name": null,
    "alternate_name": "4-Isoquinolinol;4-Hydroxyisoquinoline;4-Isoquinolol;NSC 153682",
    "duplicated_cas_no": "36834-52-3",
    "SMILES": "OC=1C2=C(C=NC1)C=CC=C2",
    "meta_data": {
        "InChI": "InChI=1S/C9H7NO/c11-9-6-10-5-7-3-1-2-4-8(7)9/h1-6,11H",
        "InChIKey": null,
        "Canonical SMILES": "OC1=CN=CC=2C=CC=CC12",
        "Molecular Formula": "C<sub>9</sub>H<sub>7</sub>NO",
        "Molecular Mass": "145.16",
        "Melting Point": "223 °C"
    }
}