{
    "cas_no": "1074-29-9",
    "key_name": "Trichlorophenylgermane",
    "cn_name": "苯三氯化锗;",
    "alternate_name": "Germane, trichlorophenyl-;Phenylgermanium trichloride;Trichlorophenylgermane;Phenyltrichlorogermane;Trichlorophenylgermanium;NSC 269585;Phenyltrichlorogermanium",
    "duplicated_cas_no": "",
    "SMILES": "[Ge](Cl)(Cl)(Cl)C1=CC=CC=C1",
    "meta_data": {
        "InChI": "InChI=1S/C6H5Cl3Ge/c7-10(8,9)6-4-2-1-3-5-6/h1-5H",
        "InChIKey": null,
        "Canonical SMILES": "Cl[Ge](Cl)(Cl)C=1C=CC=CC1",
        "Molecular Formula": "C<sub>6</sub>H<sub>5</sub>Cl<sub>3</sub>Ge",
        "Molecular Mass": "256.10",
        "Boiling Point": "226-228 °C",
        "Density": "1.584 g/cm³"
    }
}