{
    "cas_no": "2179-60-4",
    "key_name": "Methyl propyl disulfide",
    "cn_name": "甲基丙基二硫醚;",
    "alternate_name": "Disulfide, methyl propyl;Methyl propyl disulfide;2,3-Dithiahexane;1-(Methyldisulfanyl)propane",
    "duplicated_cas_no": "",
    "SMILES": "C(SSC)CC",
    "meta_data": {
        "InChI": "InChI=1S/C4H10S2/c1-3-4-6-5-2/h3-4H2,1-2H3",
        "InChIKey": null,
        "Canonical SMILES": "S(SCCC)C",
        "Molecular Formula": "C<sub>4</sub>H<sub>10</sub>S<sub>2</sub>",
        "Molecular Mass": "122.25",
        "Boiling Point": "95.6 °C",
        "Melting Point": "-112.98 °C",
        "Density": "0.8375 g/cm³ @ Temp: 25 °C"
    }
}