{
    "cas_no": "33025-60-4",
    "key_name": "1-(3-Hydroxy-1<em>H</em>-indol-1-yl)ethanone",
    "cn_name": "N-乙酰基-3-羟基吲哚;",
    "alternate_name": "Ethanone, 1-(3-hydroxy-1<em>H</em>-indol-1-yl)-;1<em>H</em>-Indol-3-ol, 1-acetyl-;Indoxyl, 1-acetyl-;1-(3-Hydroxy-1<em>H</em>-indol-1-yl)ethanone;<em>N</em>-Acetylindol-3-ol;1-(3-Hydroxyindol-1-yl)ethanone;1-Acetyl-3-hydroxyindole;<em>N</em>-Acetyl-3-hydroxyindole",
    "duplicated_cas_no": "419563-66-9",
    "SMILES": "C(C)(=O)N1C=2C(C(O)=C1)=CC=CC2",
    "meta_data": {
        "InChI": "InChI=1S/C10H9NO2/c1-7(12)11-6-10(13)8-4-2-3-5-9(8)11/h2-6,13H,1H3",
        "InChIKey": null,
        "Canonical SMILES": "O=C(N1C=C(O)C=2C=CC=CC21)C",
        "Molecular Formula": "C<sub>10</sub>H<sub>9</sub>NO<sub>2</sub>",
        "Molecular Mass": "175.18",
        "Melting Point": "136 °C"
    }
}