{
    "cas_no": "578-66-5",
    "key_name": "8-Aminoquinoline",
    "cn_name": "8-氨基喹啉;",
    "alternate_name": "8-Quinolinamine;Quinoline, 8-amino-;8-Aminoquinoline;8-Quinolylamine;WR 6920;NC 066;8-Quinolinylamine;NSC 7933;4-Quinolin-8-amine",
    "duplicated_cas_no": "1412898-64-6",
    "SMILES": "NC=1C2=C(C=CC1)C=CC=N2",
    "meta_data": {
        "InChI": "InChI=1S/C9H8N2/c10-8-5-1-3-7-4-2-6-11-9(7)8/h1-6H,10H2",
        "InChIKey": null,
        "Canonical SMILES": "N1=CC=CC2=CC=CC(N)=C12",
        "Molecular Formula": "C<sub>9</sub>H<sub>8</sub>N<sub>2</sub>",
        "Molecular Mass": "144.17",
        "Boiling Point": "157 °C",
        "Melting Point": "70 °C"
    }
}