{
    "cas_no": "3153-26-2",
    "key_name": "Vanadyl acetylacetonate",
    "cn_name": "氧化二乙酰丙酮合钒;",
    "alternate_name": "Vanadium, oxobis(2,4-pentanedionato-κ<em>O</em><sup>2</sup>,κ<em>O</em><sup>4</sup>)-, (<em>SP</em>-5-21)-;Vanadium, oxobis(2,4-pentanedionato)-;Vanadium, oxobis(2,4-pentanedionato-<em>O</em>,<em>O</em>′)-, (<em>SP</em>-5-21)-;Vanadium, oxobis(2,4-pentanedionato-κ<em>O</em>,κ<em>O</em>′)-, (<em>SP</em>-5-21)-;(<em>SP</em>-5-21)-Oxobis(2,4-pentanedionato-κ<em>O</em><sup>2</sup>,κ<em>O</em><sup>4</sup>)vanadium;Vanadyl acetylacetonate;Bis(acetylacetonato)oxovanadium(IV);Vanadyl bis(2,4-pentanedionate);Vanadyl bis(acetylacetonate);Bis(acetylacetonato)oxyvanadium;Oxobis(acetylacetonato)vanadium;Oxobis(2,4-pentanedionato)vanadium;Bis(acetylacetonato)oxovanadium;Bis(2,4-pentanedionato)oxovanadium(IV);Bis(2,4-pentanedionato)oxovanadium;Oxovanadium(II) acetylacetonate;NSC 116105;NSC 4659;NSC 52327;Nacem Vanadyl;50D;VoAA;Vanadium(IV) bis(acetylacetonato)(oxo);Vanadium(IV) oxide bis(2,4-pentanedionate);Vanadium oxide acetylacetonate;Bis(2,4-pentanedionato)vanadium(IV) oxide",
    "duplicated_cas_no": "13930-95-5;21773-11-5;39136-41-9;58271-97-9;72007-96-6",
    "SMILES": "O=[V+2]12(O=C(C)[CH-]C(C)=O1)O=C(C)[CH-]C(C)=O2",
    "meta_data": {
        "InChI": "InChI=1S/2C5H7O2.O.V/c2*1-4(6)3-5(2)7;;/h2*3H,1-2H3;;/q2*-1;;+2",
        "InChIKey": null,
        "Canonical SMILES": "O=[V+2]12(O=C([CH-]C(=O1)C)C)O=C([CH-]C(=O2)C)C",
        "Molecular Formula": "C<sub>10</sub>H<sub>14</sub>O<sub>5</sub>V",
        "Molecular Mass": "",
        "Melting Point": "243-246 °C (decomp)",
        "Density": "1.52-1.74 g/cm³"
    }
}