{
    "cas_no": "2884-51-7",
    "key_name": "(9β,11β,16α)-21-(Acetyloxy)-9,11-epoxy-17-hydroxy-16-methylpregna-1,4-diene-3,20-dione",
    "cn_name": null,
    "alternate_name": "Pregna-1,4-diene-3,20-dione, 21-(acetyloxy)-9,11-epoxy-17-hydroxy-16-methyl-, (9β,11β,16α)-;9β-Pregna-1,4-diene-3,20-dione, 9,11β-epoxy-17,21-dihydroxy-16α-methyl-, 21-acetate;(9β,11β,16α)-21-(Acetyloxy)-9,11-epoxy-17-hydroxy-16-methylpregna-1,4-diene-3,20-dione",
    "duplicated_cas_no": "",
    "SMILES": "C[C@@]12[C@@]34[C@]([C@]5([C@](C)(C[C@@]3(O4)[H])[C@](C(COC(C)=O)=O)(O)[C@H](C)C5)[H])(CCC1=CC(=O)C=C2)[H]",
    "meta_data": {
        "InChI": "InChI=1S/C24H30O6/c1-13-9-18-17-6-5-15-10-16(26)7-8-21(15,3)24(17)20(30-24)11-22(18,4)23(13,28)19(27)12-29-14(2)25/h7-8,10,13,17-18,20,28H,5-6,9,11-12H2,1-4H3/t13-,17+,18+,20+,21+,22+,23+,24-/m1/s1",
        "InChIKey": null,
        "Canonical SMILES": "O=C1C=CC2(C(=C1)CCC3C4CC(C)C(O)(C(=O)COC(=O)C)C4(C)CC5OC532)C",
        "Molecular Formula": "C<sub>24</sub>H<sub>30</sub>O<sub>6</sub>",
        "Molecular Mass": "414.49",
        "Melting Point": "198-200 °C"
    }
}