{
    "cas_no": "41663-84-7",
    "key_name": "2-Methyl-5-nitro-1<em>H</em>-isoindole-1,3(2<em>H</em>)-dione",
    "cn_name": "N-甲基-4-硝基邻苯二甲酰亚胺;",
    "alternate_name": "1<em>H</em>-Isoindole-1,3(2<em>H</em>)-dione, 2-methyl-5-nitro-;Phthalimide, <em>N</em>-methyl-4-nitro-;2-Methyl-5-nitro-1<em>H</em>-isoindole-1,3(2<em>H</em>)-dione;4-Nitro-<em>N</em>-methylphthalimide;<em>N</em>-Methyl-4-nitrophthalimide;2-Methyl-5-nitro-isoindole-1,3-dione;2-Methyl-5-nitroisoindoline-1,3-dione;2-Methyl-5-nitro-2,3-dihydro-1<em>H</em>-isoindole-1,3-dione;2-Methyl-5-nitroisoindole-1,3-dione",
    "duplicated_cas_no": "",
    "SMILES": "O=C1C=2C(C(=O)N1C)=CC=C(N(=O)=O)C2",
    "meta_data": {
        "InChI": "InChI=1S/C9H6N2O4/c1-10-8(12)6-3-2-5(11(14)15)4-7(6)9(10)13/h2-4H,1H3",
        "InChIKey": null,
        "Canonical SMILES": "O=C1C2=CC=C(C=C2C(=O)N1C)N(=O)=O",
        "Molecular Formula": "C<sub>9</sub>H<sub>6</sub>N<sub>2</sub>O<sub>4</sub>",
        "Molecular Mass": "206.15",
        "Melting Point": "179-180 °C"
    }
}