{
    "cas_no": "623-37-0",
    "key_name": "3-Hexanol",
    "cn_name": "3-己醇;1-乙基丁醇;乙基丙基甲醇;3-羟基己烷;",
    "alternate_name": "3-Hexanol;3-Hexyl alcohol;(±)-3-Hexanol;<span class=\"text-smallcaps\">D</smallcap><smallcap>L</span>-3-Hexanol;NSC 60708;1-Ethylbutanol",
    "duplicated_cas_no": "17015-11-1",
    "SMILES": "C(CCC)(CC)O",
    "meta_data": {
        "InChI": "InChI=1S/C6H14O/c1-3-5-6(7)4-2/h6-7H,3-5H2,1-2H3",
        "InChIKey": null,
        "Canonical SMILES": "OC(CC)CCC",
        "Molecular Formula": "C<sub>6</sub>H<sub>14</sub>O",
        "Molecular Mass": "102.17",
        "Boiling Point": "134.75 °C",
        "Density": "0.8213 g/cm³ @ Temp: 20 °C"
    }
}