{
    "cas_no": "1123-34-8",
    "key_name": "1-(2-Propen-1-yl)cyclohexanol",
    "cn_name": "1-烯丙基环己醇;",
    "alternate_name": "Cyclohexanol, 1-(2-propen-1-yl)-;Cyclohexanol, 1-allyl-;Cyclohexanol, 1-(2-propenyl)-;1-(2-Propen-1-yl)cyclohexanol;1-(1-Hydroxycyclohexyl)-2-propene;1-Allylcyclohexanol;1-Allyl-1-cyclohexanol;1-(Prop-2-en-1-yl)cyclohexan-1-ol",
    "duplicated_cas_no": "",
    "SMILES": "C(C=C)C1(O)CCCCC1",
    "meta_data": {
        "InChI": "InChI=1S/C9H16O/c1-2-6-9(10)7-4-3-5-8-9/h2,10H,1,3-8H2",
        "InChIKey": null,
        "Canonical SMILES": "OC1(CC=C)CCCCC1",
        "Molecular Formula": "C<sub>9</sub>H<sub>16</sub>O",
        "Molecular Mass": "140.22",
        "Boiling Point": "62-64 °C @ Press: 3 Torr"
    }
}