{
    "cas_no": "657-15-8",
    "key_name": "2,2,2-Trifluoro-1-(3-nitrophenyl)ethanone",
    "cn_name": null,
    "alternate_name": "Ethanone, 2,2,2-trifluoro-1-(3-nitrophenyl)-;Acetophenone, 2,2,2-trifluoro-3′-nitro-;2,2,2-Trifluoro-1-(3-nitrophenyl)ethanone;<em>m</em>-Nitro-α,α,α-trifluoroacetophenone;3′-Nitro-2,2,2-trifluoroacetophenone;3-Nitrotrifluoroacetophenone;1-(3-Nitrophenyl)-2,2,2-trifluoro-ethanone;2,2,2-Trifluoro-1-(3-nitrophenyl)ethan-1-one",
    "duplicated_cas_no": "",
    "SMILES": "C(C(F)(F)F)(=O)C1=CC(N(=O)=O)=CC=C1",
    "meta_data": {
        "InChI": "InChI=1S/C8H4F3NO3/c9-8(10,11)7(13)5-2-1-3-6(4-5)12(14)15/h1-4H",
        "InChIKey": null,
        "Canonical SMILES": "O=C(C1=CC=CC(=C1)N(=O)=O)C(F)(F)F",
        "Molecular Formula": "C<sub>8</sub>H<sub>4</sub>F<sub>3</sub>NO<sub>3</sub>",
        "Molecular Mass": "219.12",
        "Melting Point": "58-59 °C"
    }
}