{
    "cas_no": "2259-06-5",
    "key_name": "Methyl betulinate",
    "cn_name": "桦木酸甲酯;桦木酸甲酯;",
    "alternate_name": "Lup-20(29)-en-28-oic acid, 3-hydroxy-, methyl ester, (3β)-;Lup-20(29)-en-28-oic acid, 3β-hydroxy-, methyl ester;Lup-20(30)-en-28-oic acid, 3β-hydroxy-, methyl ester;1<em>H</em>-Cyclopenta[<em>a</em>]chrysene, lup-20(29)-en-28-oic acid deriv.;Methyl betulinate;Methyl betulate;Betulinic acid methyl ester;Mairin, methyl ester;NSC 152532",
    "duplicated_cas_no": "",
    "SMILES": "C(OC)(=O)[C@]12[C@@]([C@@]3([C@@](C)(CC1)[C@@]4(C)[C@](CC3)([C@]5(C)[C@@](CC4)(C(C)(C)[C@@H](O)CC5)[H])[H])[H])([C@H](C(C)=C)CC2)[H]",
    "meta_data": {
        "InChI": "InChI=1S/C31H50O3/c1-19(2)20-11-16-31(26(33)34-8)18-17-29(6)21(25(20)31)9-10-23-28(5)14-13-24(32)27(3,4)22(28)12-15-30(23,29)7/h20-25,32H,1,9-18H2,2-8H3/t20-,21+,22-,23+,24-,25+,28-,29+,30+,31-/m0/s1",
        "InChIKey": null,
        "Canonical SMILES": "O=C(OC)C12CCC(C(=C)C)C2C3CCC4C5(C)CCC(O)C(C)(C)C5CCC4(C)C3(C)CC1",
        "Molecular Formula": "C<sub>31</sub>H<sub>50</sub>O<sub>3</sub>",
        "Molecular Mass": "470.73",
        "Melting Point": "224-225 °C"
    }
}