{
    "cas_no": "6630-65-5",
    "key_name": "9-Chlorofluorene",
    "cn_name": "9-氯芴;9-氯-9-H-芴;9-氯芴;",
    "alternate_name": "9<em>H</em>-Fluorene, 9-chloro-;Fluorene, 9-chloro-;9-Chloro-9<em>H</em>-fluorene;9-Chlorofluorene;NSC 59976",
    "duplicated_cas_no": "",
    "SMILES": "ClC1C=2C(C=3C1=CC=CC3)=CC=CC2",
    "meta_data": {
        "InChI": "InChI=1S/C13H9Cl/c14-13-11-7-3-1-5-9(11)10-6-2-4-8-12(10)13/h1-8,13H",
        "InChIKey": null,
        "Canonical SMILES": "ClC1C=2C=CC=CC2C=3C=CC=CC31",
        "Molecular Formula": "C<sub>13</sub>H<sub>9</sub>Cl",
        "Molecular Mass": "200.66",
        "Melting Point": "92 °C"
    }
}