{
    "cas_no": "13057-17-5",
    "key_name": "Bromomethyl methyl ether",
    "cn_name": "溴甲基甲基醚;溴甲基甲醚;",
    "alternate_name": "Methane, bromomethoxy-;Ether, bromomethyl methyl;Bromomethoxymethane;Bromomethyl methyl ether;Methoxymethyl bromide;NSC 155338;1-Bromomethyl methyl ether",
    "duplicated_cas_no": "",
    "SMILES": "C(OC)Br",
    "meta_data": {
        "InChI": "InChI=1S/C2H5BrO/c1-4-2-3/h2H2,1H3",
        "InChIKey": null,
        "Canonical SMILES": "BrCOC",
        "Molecular Formula": "C<sub>2</sub>H<sub>5</sub>BrO",
        "Molecular Mass": "124.96",
        "Boiling Point": "87 °C"
    }
}