{
    "cas_no": "12129-06-5",
    "key_name": "(Pentamethylcyclopentadienyl)titanium trichloride",
    "cn_name": "五甲基环戊二烯基三氯化钛(IV);",
    "alternate_name": "Titanium, trichloro[(1,2,3,4,5-η)-1,2,3,4,5-pentamethyl-2,4-cyclopentadien-1-yl]-;Titanium, trichloro(pentamethyl-π-cyclopentadienyl)-;Titanium, trichloro(pentamethylcyclopentadienyl)-;Trichloro[(1,2,3,4,5-η)-1,2,3,4,5-pentamethyl-2,4-cyclopentadien-1-yl]titanium;(Pentamethylcyclopentadienyl)titanium trichloride;(Pentamethylcyclopentadienyl)trichlorotitanium;Trichloro(η<sup>5</sup>-pentamethylcyclopentadienyl)titanium;Trichloro(pentamethylcyclopentadienyl)titanium;(Pentamethylcyclopentadienyl)titanium(IV) trichloride;(1,2,3,4,5-Pentamethylcyclopentadienyl)titanium trichloride",
    "duplicated_cas_no": "",
    "SMILES": "[Cl-][Ti+4]1234([Cl-])([Cl-])[C-]5(C)C1(C)=C2(C)C3(C)=C45C",
    "meta_data": {
        "InChI": "InChI=1S/C10H15.3ClH.Ti/c1-6-7(2)9(4)10(5)8(6)3;;;;/h1-5H3;3*1H;/q-1;;;;+4/p-3",
        "InChIKey": null,
        "Canonical SMILES": "[Cl-][Ti+4]1234([Cl-])([Cl-])C=5(C)C4(C)=C3(C)[C-]2(C)C51C",
        "Molecular Formula": "C<sub>10</sub>H<sub>15</sub>Cl<sub>3</sub>Ti",
        "Molecular Mass": "",
        "Boiling Point": "190-220 °C @ Press: 4-7 Torr",
        "Melting Point": "225 °C"
    }
}