{
    "cas_no": "16634-82-5",
    "key_name": "2-Chloro-<em>N</em>-(4-methylphenyl)acetamide",
    "cn_name": null,
    "alternate_name": "Acetamide, 2-chloro-<em>N</em>-(4-methylphenyl)-;<em>p</em>-Acetotoluidide, 2-chloro-;2-Chloro-<em>N</em>-(4-methylphenyl)acetamide;2-Chloro-4′-methylacetanilide;<em>N</em>-(Chloroacetyl)-<em>p</em>-toluidine;2-Chloroaceto-<em>p</em>-toluidide;4′-Methyl-α-chloroacetanilide;2-Chloro-<em>N</em>-<em>p</em>-tolylacetamide;<em>p</em>-Methylchloroacetanilide;2-Chloro-4′-acetotoluidide;<em>N</em>-(4-Methylphenyl)chloroacetamide;<em>N</em>-Chloroacetyl-4-methylaniline;NSC 8372;α-Chloro-<em>p</em>-methylacetanilide;2-Chloro-<em>N</em>-(methylphenyl)acetamide;4′-Methyl-2-chloroacetanilide;<em>N</em>-(4-Methylphenyl)-2-chloroacetamide",
    "duplicated_cas_no": "",
    "SMILES": "N(C(CCl)=O)C1=CC=C(C)C=C1",
    "meta_data": {
        "InChI": "InChI=1S/C9H10ClNO/c1-7-2-4-8(5-3-7)11-9(12)6-10/h2-5H,6H2,1H3,(H,11,12)",
        "InChIKey": null,
        "Canonical SMILES": "O=C(NC1=CC=C(C=C1)C)CCl",
        "Molecular Formula": "C<sub>9</sub>H<sub>10</sub>ClNO",
        "Molecular Mass": "183.63",
        "Melting Point": "83 °C"
    }
}