{
    "cas_no": "2720-67-4",
    "key_name": "Potassium propyl xanthate",
    "cn_name": "丙磺原酸钾盐;",
    "alternate_name": "Carbonodithioic acid, <em>O</em>-propyl ester, potassium salt (1:1);Carbonic acid, dithio-, <em>O</em>-propyl ester, potassium salt;Carbonodithioic acid, <em>O</em>-propyl ester, potassium salt;Xanthic acid, propyl-, potassium salt;Potassium <em>O</em>-propyl xanthate;Propyl potassium xanthate;Potassium propyl xanthogenate;Potassium <em>n</em>-propyl xanthate;Potassium propyl xanthate;Potassium <em>O</em>-propyl dithiocarbonate;Potassium propyl dithiocarbonate",
    "duplicated_cas_no": "",
    "SMILES": "O(C(=S)S)CCC.[K]",
    "meta_data": {
        "InChI": "InChI=1S/C4H8OS2.K/c1-2-3-5-4(6)7;/h2-3H2,1H3,(H,6,7);",
        "InChIKey": null,
        "Canonical SMILES": "[K].S=C(S)OCCC",
        "Molecular Formula": "C<sub>4</sub>H<sub>8</sub>OS<sub>2</sub>.K",
        "Molecular Mass": "",
        "Melting Point": "228-230 °C"
    }
}