{
    "cas_no": "15644-90-3",
    "key_name": "6-Methoxy-2-methyl-4-quinolinol",
    "cn_name": "4-羟基-6-甲氧基-2-甲基喹啉;",
    "alternate_name": "4-Quinolinol, 6-methoxy-2-methyl-;6-Methoxy-2-methyl-4-quinolinol;2-Methyl-6-methoxyquinolin-4-ol;4-Hydroxy-6-methoxyquinaldine;NSC 246072;4-Hydroxy-6-methoxy-2-methylquinoline",
    "duplicated_cas_no": "",
    "SMILES": "OC=1C2=C(N=C(C)C1)C=CC(OC)=C2",
    "meta_data": {
        "InChI": "InChI=1S/C11H11NO2/c1-7-5-11(13)9-6-8(14-2)3-4-10(9)12-7/h3-6H,1-2H3,(H,12,13)",
        "InChIKey": null,
        "Canonical SMILES": "OC1=CC(=NC=2C=CC(OC)=CC12)C",
        "Molecular Formula": "C<sub>11</sub>H<sub>11</sub>NO<sub>2</sub>",
        "Molecular Mass": "189.21",
        "Melting Point": "317-318 °C (decomp)"
    }
}