{
    "cas_no": "615-66-7",
    "key_name": "2-Chloro-<em>p</em>-phenylenediamine",
    "cn_name": "2-氯-4-氨基苯胺;邻氯对苯二胺;2-氯-1,4-苯二胺;",
    "alternate_name": "1,4-Benzenediamine, 2-chloro-;<em>p</em>-Phenylenediamine, 2-chloro-;2-Chloro-1,4-benzenediamine;C.I. 76065;3-Chloro-4-aminoaniline;Ursol Brown O;2-Chloro-<em>p</em>-phenylenediamine;2-Chloro-1,4-phenylenediamine;1,4-Diamino-2-chlorobenzene;2-Chloro-1,4-diaminobenzene;2,5-Diaminochlorobenzene;4-Amino-2-chloroaniline;3-Chloro-1,4-phenylenediamine",
    "duplicated_cas_no": "141740-59-2;86830-29-7",
    "SMILES": "ClC1=C(N)C=CC(N)=C1",
    "meta_data": {
        "InChI": "InChI=1S/C6H7ClN2/c7-5-3-4(8)1-2-6(5)9/h1-3H,8-9H2",
        "InChIKey": null,
        "Canonical SMILES": "ClC1=CC(N)=CC=C1N",
        "Molecular Formula": "C<sub>6</sub>H<sub>7</sub>ClN<sub>2</sub>",
        "Molecular Mass": "142.59",
        "Melting Point": "63 °C"
    }
}