{
    "cas_no": "1153-05-5",
    "key_name": "Triphenylarsine oxide",
    "cn_name": null,
    "alternate_name": "Arsine oxide, triphenyl-;Triphenylarsine oxide;Triphenylarsenic oxide;Triphenylarsine monoxide;NSC 12673;(Diphenylarsoroso)benzene",
    "duplicated_cas_no": "856568-31-5",
    "SMILES": "[As](=O)(C1=CC=CC=C1)(C2=CC=CC=C2)C3=CC=CC=C3",
    "meta_data": {
        "InChI": "InChI=1S/C18H15AsO/c20-19(16-10-4-1-5-11-16,17-12-6-2-7-13-17)18-14-8-3-9-15-18/h1-15H",
        "InChIKey": null,
        "Canonical SMILES": "O=[As](C=1C=CC=CC1)(C=2C=CC=CC2)C=3C=CC=CC3",
        "Molecular Formula": "C<sub>18</sub>H<sub>15</sub>AsO",
        "Molecular Mass": "322.23",
        "Melting Point": "189 °C"
    }
}