{
    "cas_no": "3775-61-9",
    "key_name": "5-Ethyl-1,3,4-oxadiazol-2-amine",
    "cn_name": "2-氨基-5-乙基-1,3,4-氧二唑;5-乙基-1,3,4-氧二唑-2-基胺;",
    "alternate_name": "1,3,4-Oxadiazol-2-amine, 5-ethyl-;1,3,4-Oxadiazole, 2-amino-5-ethyl-;5-Ethyl-1,3,4-oxadiazol-2-amine;2-Amino-5-ethyl-1,3,4-oxadiazole;NSC 382942;5-Ethyl-2-amino-[1,3,4]oxadiazole;5-Ethyl-1,3,4-oxadiazol-2-ylamine",
    "duplicated_cas_no": "",
    "SMILES": "C(C)C=1OC(N)=NN1",
    "meta_data": {
        "InChI": "InChI=1S/C4H7N3O/c1-2-3-6-7-4(5)8-3/h2H2,1H3,(H2,5,7)",
        "InChIKey": null,
        "Canonical SMILES": "N=1N=C(OC1N)CC",
        "Molecular Formula": "C<sub>4</sub>H<sub>7</sub>N<sub>3</sub>O",
        "Molecular Mass": "113.12",
        "Melting Point": "180-181 °C"
    }
}