{
    "cas_no": "1689-99-2",
    "key_name": "Bromoxynil octanoate",
    "cn_name": null,
    "alternate_name": "Octanoic acid, 2,6-dibromo-4-cyanophenyl ester;Octanoic acid, ester with 3,5-dibromo-4-hydroxybenzonitrile;Bromoxynil octanoate;Bromoxynil <em>n</em>-octanoyl ester;3,5-Dibromo-4-<em>n</em>-octanoyloxybenzonitrile;Bromoxynil octanoic acid ester;4-Cyano-2,6-dibromophenyl octanoate;3,5-Dibromo-4-octanoyloxybenzonitrile;NPH 1320;2,6-Dibromo-4-cyanophenyl octanoate;3,5-Dibromo-4-hydroxybenzonitrile octanoate ester;Brominal W;Buctril;Certrol B;Bromotril;Buctril 33.4EC",
    "duplicated_cas_no": "33964-24-8;86702-80-9",
    "SMILES": "O(C(CCCCCCC)=O)C1=C(Br)C=C(C#N)C=C1Br",
    "meta_data": {
        "InChI": "InChI=1S/C15H17Br2NO2/c1-2-3-4-5-6-7-14(19)20-15-12(16)8-11(10-18)9-13(15)17/h8-9H,2-7H2,1H3",
        "InChIKey": null,
        "Canonical SMILES": "N#CC1=CC(Br)=C(OC(=O)CCCCCCC)C(Br)=C1",
        "Molecular Formula": "C<sub>15</sub>H<sub>17</sub>Br<sub>2</sub>NO<sub>2</sub>",
        "Molecular Mass": "403.11",
        "Melting Point": "45.5 °C"
    }
}