{
    "cas_no": "4341-76-8",
    "key_name": "Ethyl 2-butynoate",
    "cn_name": "2-丁炔酸乙酯;",
    "alternate_name": "2-Butynoic acid, ethyl ester;Tetrolic acid, ethyl ester;Ethyl tetrolate;Ethyl 2-butynoate;Ethyl 3-methylpropiolate;Ethyl 1-propynecarboxylate",
    "duplicated_cas_no": "",
    "SMILES": "C(C#CC)(OCC)=O",
    "meta_data": {
        "InChI": "InChI=1S/C6H8O2/c1-3-5-6(7)8-4-2/h4H2,1-2H3",
        "InChIKey": null,
        "Canonical SMILES": "O=C(C#CC)OCC",
        "Molecular Formula": "C<sub>6</sub>H<sub>8</sub>O<sub>2</sub>",
        "Molecular Mass": "112.13",
        "Boiling Point": "163 °C",
        "Density": "0.9660 g/cm³ @ Temp: 20 °C"
    }
}