{
    "cas_no": "306-44-5",
    "key_name": "2-Oxopropanal 1-oxime",
    "cn_name": "2-氧代丙醛-1-肟;2-氧代丙醛-1-肟;",
    "alternate_name": "Propanal, 2-oxo-, 1-oxime;Pyruvaldehyde, 1-oxime;Pyruvaldehyde, aldoxime;2-Oxopropanal 1-oxime;Isonitrosoacetone;Monoisonitrosoacetone;Pyruvaldoxime;MINA;2-Propanone, 1-(hydroxyimino)-;Methylglyoxal aldoxime;RA 52;NSC 53172;2-Oxopropanal oxime",
    "duplicated_cas_no": "",
    "SMILES": "C(C(C)=O)=NO",
    "meta_data": {
        "InChI": "InChI=1S/C3H5NO2/c1-3(5)2-4-6/h2,6H,1H3",
        "InChIKey": null,
        "Canonical SMILES": "O=C(C=NO)C",
        "Molecular Formula": "C<sub>3</sub>H<sub>5</sub>NO<sub>2</sub>",
        "Molecular Mass": "87.08",
        "Melting Point": "69 °C"
    }
}