{
    "cas_no": "2566-22-5",
    "key_name": "Benzoyl-<span class=\"text-smallcaps\">L</span>-phenylalanine",
    "cn_name": "N-苯甲酰-L-苯基丙氨酸;",
    "alternate_name": "<span class=\"text-smallcaps\">L</span>-Phenylalanine, <em>N</em>-benzoyl-;Alanine, <em>N</em>-benzoyl-3-phenyl-, <span class=\"text-smallcaps\">L</span>-;<span class=\"text-smallcaps\">L</span>-Alanine, <em>N</em>-benzoyl-3-phenyl-;<em>N</em>-Benzoyl-<span class=\"text-smallcaps\">L</span>-phenylalanine;<em>N</em>-Benzoylphenylalanine;Benzoyl-<span class=\"text-smallcaps\">L</span>-phenylalanine;(<em>S</em>)-α-(Phenylmethyl)hippuric acid;(<em>S</em>)-<em>N</em>-Benzoylphenylalanine;(+)-<em>N</em>-Benzoylphenylalanine;<em>N</em>-Benzoyl-3-phenylalanine;(<em>S</em>)-2-Benzoylamino-3-phenylpropanoic acid;<span class=\"text-smallcaps\">L</span>-Bz-Phenylalanine;NSC 167264;(2<em>S</em>)-2-(Benzoylamino)-3-phenylpropanoic acid;(2S)-2-Benzamido-3-phenylpropanoic acid;(2S)-3-Phenyl-2-(phenylformamido)propanoic acid;Bz-<span class=\"text-smallcaps\">L</span>-phe-oh",
    "duplicated_cas_no": "55405-93-1;93059-41-7;383191-21-7",
    "SMILES": "[C@H](NC(=O)C1=CC=CC=C1)(CC2=CC=CC=C2)C(O)=O",
    "meta_data": {
        "InChI": "InChI=1S/C16H15NO3/c18-15(13-9-5-2-6-10-13)17-14(16(19)20)11-12-7-3-1-4-8-12/h1-10,14H,11H2,(H,17,18)(H,19,20)/t14-/m0/s1",
        "InChIKey": null,
        "Canonical SMILES": "O=C(O)C(NC(=O)C=1C=CC=CC1)CC=2C=CC=CC2",
        "Molecular Formula": "C<sub>16</sub>H<sub>15</sub>NO<sub>3</sub>",
        "Molecular Mass": "269.30",
        "Melting Point": "184 °C (decomp)"
    }
}