{
    "cas_no": "25173-72-2",
    "key_name": "3-(3,4,5-Trimethoxyphenyl)propionic acid",
    "cn_name": "3-(3,4,5-三甲氧基苯基)丙酸;",
    "alternate_name": "Benzenepropanoic acid, 3,4,5-trimethoxy-;Hydrocinnamic acid, 3,4,5-trimethoxy-;3,4,5-Trimethoxybenzenepropanoic acid;3,4,5-Trimethoxy-β-phenylpropionic acid;3,4,5-Trimethoxyphenylpropionic acid;3-(3,4,5-Trimethoxyphenyl)propanoic acid;3,4,5-Trimethoxyhydrocinnamic acid;3-(3,4,5-Trimethoxyphenyl)propionic acid;NSC 169988",
    "duplicated_cas_no": "",
    "SMILES": "O(C)C1=C(OC)C(OC)=CC(CCC(O)=O)=C1",
    "meta_data": {
        "InChI": "InChI=1S/C12H16O5/c1-15-9-6-8(4-5-11(13)14)7-10(16-2)12(9)17-3/h6-7H,4-5H2,1-3H3,(H,13,14)",
        "InChIKey": null,
        "Canonical SMILES": "O=C(O)CCC1=CC(OC)=C(OC)C(OC)=C1",
        "Molecular Formula": "C<sub>12</sub>H<sub>16</sub>O<sub>5</sub>",
        "Molecular Mass": "240.25",
        "Melting Point": "98 °C"
    }
}