{
    "cas_no": "2489-77-2",
    "key_name": "Trimethylthiourea",
    "cn_name": "三甲基硫脲;三甲基-2-硫脲;",
    "alternate_name": "Thiourea, <em>N</em>,<em>N</em>,<em>N</em>′-trimethyl-;Urea, 1,1,3-trimethyl-2-thio-;Thiourea, trimethyl-;<em>N</em>,<em>N</em>,<em>N</em>′-Trimethylthiourea;Trimethylthiourea;1,1,3-Trimethylthiourea;1,3,3-Trimethylthiourea;Thiate E;Nocceler TMU;Sanceler TMU;NSC 153385;Thiate EF 2",
    "duplicated_cas_no": "",
    "SMILES": "C(N(C)C)(NC)=S",
    "meta_data": {
        "InChI": "InChI=1S/C4H10N2S/c1-5-4(7)6(2)3/h1-3H3,(H,5,7)",
        "InChIKey": null,
        "Canonical SMILES": "S=C(NC)N(C)C",
        "Molecular Formula": "C<sub>4</sub>H<sub>10</sub>N<sub>2</sub>S",
        "Molecular Mass": "118.20",
        "Melting Point": "87-88 °C"
    }
}