{
    "cas_no": "581-08-8",
    "key_name": "<em>N</em>-(2-Ethoxyphenyl)acetamide",
    "cn_name": "邻乙酰乙氧基苯胺;",
    "alternate_name": "Acetamide, <em>N</em>-(2-ethoxyphenyl)-;<em>o</em>-Acetophenetidide;<em>N</em>-(2-Ethoxyphenyl)acetamide;2′-Ethoxyacetanilide;<em>o</em>-Ethoxyacetanilide;<em>o</em>-Acetylphenetidine;NSC 7649",
    "duplicated_cas_no": "",
    "SMILES": "N(C(C)=O)C1=C(OCC)C=CC=C1",
    "meta_data": {
        "InChI": "InChI=1S/C10H13NO2/c1-3-13-10-7-5-4-6-9(10)11-8(2)12/h4-7H,3H2,1-2H3,(H,11,12)",
        "InChIKey": null,
        "Canonical SMILES": "O=C(NC=1C=CC=CC1OCC)C",
        "Molecular Formula": "C<sub>10</sub>H<sub>13</sub>NO<sub>2</sub>",
        "Molecular Mass": "179.22",
        "Boiling Point": "&gt;240 °C",
        "Melting Point": "79 °C"
    }
}