{
    "cas_no": "4540-33-4",
    "key_name": "Piperidinium acetate",
    "cn_name": "哌啶乙酸盐;",
    "alternate_name": "Piperidine, acetate (1:1);Piperidine, acetate;Piperidinium acetate",
    "duplicated_cas_no": "",
    "SMILES": "C1CCNCC1.C(C)(O)=O",
    "meta_data": {
        "InChI": "InChI=1S/C5H11N.C2H4O2/c1-2-4-6-5-3-1;1-2(3)4/h6H,1-5H2;1H3,(H,3,4)",
        "InChIKey": null,
        "Canonical SMILES": "O=C(O)C.N1CCCCC1",
        "Molecular Formula": "C<sub>5</sub>H<sub>11</sub>N.C<sub>2</sub>H<sub>4</sub>O<sub>2</sub>",
        "Molecular Mass": "",
        "Boiling Point": "96-98 °C @ Press: 9 Torr",
        "Melting Point": "104-106 °C",
        "Density": "0.9366 g/cm³"
    }
}