{
    "cas_no": "51218-45-2",
    "key_name": "Metolachlor",
    "cn_name": "异丙甲草胺;2-氯-N-(1-甲基-2-甲氧乙基)-N-(2-乙基-6-甲基苯基)乙酰胺;",
    "alternate_name": "Acetamide, 2-chloro-<em>N</em>-(2-ethyl-6-methylphenyl)-<em>N</em>-(2-methoxy-1-methylethyl)-;2-Chloro-<em>N</em>-(2-ethyl-6-methylphenyl)-<em>N</em>-(2-methoxy-1-methylethyl)acetamide;CGA 24705;Dual;Metetilachlor;Metolachlor;Codal;<em>N</em>-(1-Methyl-2-methoxyethyl)-<em>N</em>-chloroacetyl-2-ethyl-6-methylaniline;Dual Triple;Pennant;Dual 720EC;Yibingjiacaoan;Dual II;Dual Magnum;Dual 960 EC;Jindual;Metoken;2-Chloro-<em>N</em>-(2-ethyl-6-methylphenyl)-<em>N</em>-(1-methoxypropan-2-yl)acetamide",
    "duplicated_cas_no": "55762-76-0;63150-68-5;94449-58-8",
    "SMILES": "N(C(COC)C)(C(CCl)=O)C1=C(CC)C=CC=C1C",
    "meta_data": {
        "InChI": "InChI=1S/C15H22ClNO2/c1-5-13-8-6-7-11(2)15(13)17(14(18)9-16)12(3)10-19-4/h6-8,12H,5,9-10H2,1-4H3",
        "InChIKey": null,
        "Canonical SMILES": "O=C(N(C=1C(=CC=CC1CC)C)C(C)COC)CCl",
        "Molecular Formula": "C<sub>15</sub>H<sub>22</sub>ClNO<sub>2</sub>",
        "Molecular Mass": "283.79",
        "Boiling Point": "100 °C @ Press: 1 x 10<sup>-3</sup> Torr",
        "Melting Point": "-62.1 °C",
        "Density": "1.12 g/cm³ @ Temp: 20 °C"
    }
}