{
    "cas_no": "4397-53-9",
    "key_name": "4-(Benzyloxy)benzaldehyde",
    "cn_name": "4-苄氧基苯甲醛;",
    "alternate_name": "Benzaldehyde, 4-(phenylmethoxy)-;Benzaldehyde, <em>p</em>-(benzyloxy)-;4-(Phenylmethoxy)benzaldehyde;<em>p</em>-(Benzyloxy)benzaldehyde;4-(Benzyloxy)benzaldehyde;NSC 131669;NSC 28298",
    "duplicated_cas_no": "",
    "SMILES": "O(CC1=CC=CC=C1)C2=CC=C(C=O)C=C2",
    "meta_data": {
        "InChI": "InChI=1S/C14H12O2/c15-10-12-6-8-14(9-7-12)16-11-13-4-2-1-3-5-13/h1-10H,11H2",
        "InChIKey": null,
        "Canonical SMILES": "O=CC1=CC=C(OCC=2C=CC=CC2)C=C1",
        "Molecular Formula": "C<sub>14</sub>H<sub>12</sub>O<sub>2</sub>",
        "Molecular Mass": "212.24",
        "Boiling Point": "198 °C @ Press: 11 Torr",
        "Melting Point": "72 °C"
    }
}