{
    "cas_no": "5458-59-3",
    "key_name": "Isopropyl octanoate",
    "cn_name": "辛酸-1-甲基乙醇酯;辛酸异丙酯;",
    "alternate_name": "Octanoic acid, 1-methylethyl ester;Octanoic acid, isopropyl ester;Isopropyl octanoate;Isopropyl caprylate;NSC 23737;<em>n</em>-Octanoic acid isopropyl ester;1-Methylethyl octanoate",
    "duplicated_cas_no": "",
    "SMILES": "C(C(OC(C)C)=O)CCCCCC",
    "meta_data": {
        "InChI": "InChI=1S/C11H22O2/c1-4-5-6-7-8-9-11(12)13-10(2)3/h10H,4-9H2,1-3H3",
        "InChIKey": null,
        "Canonical SMILES": "O=C(OC(C)C)CCCCCCC",
        "Molecular Formula": "C<sub>11</sub>H<sub>22</sub>O<sub>2</sub>",
        "Molecular Mass": "186.29",
        "Boiling Point": "242 °C"
    }
}