{
    "cas_no": "2131-41-1",
    "key_name": "1,4,5-Trimethylnaphthalene",
    "cn_name": "1,4,5-三甲基萘;三甲基萘;",
    "alternate_name": "Naphthalene, 1,4,5-trimethyl-;1,4,5-Trimethylnaphthalene",
    "duplicated_cas_no": "",
    "SMILES": "CC=1C2=C(C(C)=CC1)C(C)=CC=C2",
    "meta_data": {
        "InChI": "InChI=1S/C13H14/c1-9-7-8-11(3)13-10(2)5-4-6-12(9)13/h4-8H,1-3H3",
        "InChIKey": null,
        "Canonical SMILES": "C=1C=C2C(=CC=C(C2=C(C1)C)C)C",
        "Molecular Formula": "C<sub>13</sub>H<sub>14</sub>",
        "Molecular Mass": "170.25",
        "Boiling Point": "145 °C",
        "Melting Point": "63 °C"
    }
}