{
    "cas_no": "375-95-1",
    "key_name": "Perfluorononanoic acid",
    "cn_name": null,
    "alternate_name": "Nonanoic acid, 2,2,3,3,4,4,5,5,6,6,7,7,8,8,9,9,9-heptadecafluoro-;Nonanoic acid, heptadecafluoro-;2,2,3,3,4,4,5,5,6,6,7,7,8,8,9,9,9-Heptadecafluorononanoic acid;Perfluoropelargonic acid;Heptadecafluorononanoic acid;Perfluorononanoic acid;C 1800;PFNA",
    "duplicated_cas_no": "",
    "SMILES": "C(C(C(C(C(F)(F)F)(F)F)(F)F)(F)F)(C(C(C(C(O)=O)(F)F)(F)F)(F)F)(F)F",
    "meta_data": {
        "InChI": "InChI=1S/C9HF17O2/c10-2(11,1(27)28)3(12,13)4(14,15)5(16,17)6(18,19)7(20,21)8(22,23)9(24,25)26/h(H,27,28)",
        "InChIKey": null,
        "Canonical SMILES": "O=C(O)C(F)(F)C(F)(F)C(F)(F)C(F)(F)C(F)(F)C(F)(F)C(F)(F)C(F)(F)F",
        "Molecular Formula": "C<sub>9</sub>HF<sub>17</sub>O<sub>2</sub>",
        "Molecular Mass": "464.08",
        "Melting Point": "69-71 °C"
    }
}