{
    "cas_no": "2980-64-5",
    "key_name": "DNOC-ammonium",
    "cn_name": "二硝基邻甲酚铵;二硝基邻甲酚铵;",
    "alternate_name": "Phenol, 2-methyl-4,6-dinitro-, ammonium salt (1:1);<em>o</em>-Cresol, 4,6-dinitro-, ammonium salt;Phenol, 2-methyl-4,6-dinitro-, ammonium salt;<em>o</em>-Cresol, 4,6-dinitro-, NH<sub>4</sub> deriv.;<em>o</em>-Cresol, 4,6-dinitro-, ammonium deriv.;4,6-Dinitro-<em>o</em>-cresol ammonium salt;Dinozol 50;Kresonit E;Krezamon;Dinozol;DNOC ammonium salt;Ammonium DNOC;Erbitox;Krezonit E;Superelgetol;Nitrosan;Nitrosan (pesticide);Kresamone;2-Methyl-4,6-nitrophenol ammonium salt;DNOC-ammonium",
    "duplicated_cas_no": "11097-14-6;37359-29-8",
    "SMILES": "N(=O)(=O)C1=CC(N(=O)=O)=CC(C)=C1O.N",
    "meta_data": {
        "InChI": "InChI=1S/C7H6N2O5.H3N/c1-4-2-5(8(11)12)3-6(7(4)10)9(13)14;/h2-3,10H,1H3;1H3",
        "InChIKey": null,
        "Canonical SMILES": "O=N(=O)C=1C=C(C(O)=C(C1)C)N(=O)=O.N",
        "Molecular Formula": "C<sub>7</sub>H<sub>6</sub>N<sub>2</sub>O<sub>5</sub>.H<sub>3</sub>N",
        "Molecular Mass": "",
        "Melting Point": "205 °C"
    }
}