{
    "cas_no": "71989-18-9",
    "key_name": "<em>N</em>-(9-Fluorenylmethoxycarbonyl)-<span class=\"text-smallcaps\">L</span>-glutamic acid γ-<em>tert</em>-butyl ester",
    "cn_name": "Fmoc-O-叔丁基-L-谷氨酸;芴甲氧羰基-O-叔丁基-L-谷氨酸;芴甲氧羰基-L-谷氨酸5-叔丁酯;",
    "alternate_name": "<span class=\"text-smallcaps\">L</span>-Glutamic acid, <em>N</em>-[(9<em>H</em>-fluoren-9-ylmethoxy)carbonyl]-, 5-(1,1-dimethylethyl) ester;<em>N</em>-(9-Fluorenylmethoxycarbonyl)-<span class=\"text-smallcaps\">L</span>-glutamic acid γ-<em>tert</em>-butyl ester;<em>N</em>-(9-Fluorenylmethoxycarbonyl)glutamic acid γ-<em>tert</em>-butyl ester;(2<em>S</em>)-5-<em>tert</em>-Butoxy-2-[[[(9<em>H</em>-fluoren-9-yl)methoxy]carbonyl]amino]-5-oxopentanoic acid;(2S)-5-(<em>tert</em>-Butoxy)-2-([[(9<em>H</em>-fluoren-9-yl)methoxy]carbonyl]amino)-5-oxopentanoic acid;(2S)-2-(9<em>H</em>-Fluoren-9-ylmethoxycarbonylamino)-5-[(2-methylpropan-2-yl)oxy]-5-oxopentanoic acid;(2S)-5-<em>tert</em>-Butoxy-2-(9<em>H</em>-fluoren-9-ylmethoxycarbonylamino)-5-oxo-pentanoic acid",
    "duplicated_cas_no": "138451-82-8;184170-70-5;1017238-29-7;1123654-81-8;1349173-04-1;1385773-90-9;2096497-79-7;2523039-38-3",
    "SMILES": "C(OC(N[C@@H](CCC(OC(C)(C)C)=O)C(O)=O)=O)C1C=2C(C=3C1=CC=CC3)=CC=CC2",
    "meta_data": {
        "InChI": "InChI=1S/C24H27NO6/c1-24(2,3)31-21(26)13-12-20(22(27)28)25-23(29)30-14-19-17-10-6-4-8-15(17)16-9-5-7-11-18(16)19/h4-11,19-20H,12-14H2,1-3H3,(H,25,29)(H,27,28)/t20-/m0/s1",
        "InChIKey": null,
        "Canonical SMILES": "O=C(OCC1C=2C=CC=CC2C=3C=CC=CC31)NC(C(=O)O)CCC(=O)OC(C)(C)C",
        "Molecular Formula": "C<sub>24</sub>H<sub>27</sub>NO<sub>6</sub>",
        "Molecular Mass": "425.47",
        "Melting Point": "83-90 °C"
    }
}