{
    "cas_no": "102-82-9",
    "key_name": "Tributylamine",
    "cn_name": "三正丁胺;N,N-二丁基-1-丁胺;三丁胺;",
    "alternate_name": "1-Butanamine, <em>N</em>,<em>N</em>-dibutyl-;Tributylamine;<em>N</em>,<em>N</em>-Dibutyl-1-butanamine;Tri-<em>n</em>-butylamine;Tris-<em>n</em>-butylamine",
    "duplicated_cas_no": "168153-19-3",
    "SMILES": "N(CCCC)(CCCC)CCCC",
    "meta_data": {
        "InChI": "InChI=1S/C12H27N/c1-4-7-10-13(11-8-5-2)12-9-6-3/h4-12H2,1-3H3",
        "InChIKey": null,
        "Canonical SMILES": "N(CCCC)(CCCC)CCCC",
        "Molecular Formula": "C<sub>12</sub>H<sub>27</sub>N",
        "Molecular Mass": "185.35",
        "Boiling Point": "216.5 °C",
        "Melting Point": "-70 °C",
        "Density": "0.7782 g/cm³ @ Temp: 20 °C"
    }
}