{
    "cas_no": "636-41-9",
    "key_name": "2-Methylpyrrole",
    "cn_name": null,
    "alternate_name": "1<em>H</em>-Pyrrole, 2-methyl-;Pyrrole, 2-methyl-;2-Methyl-1<em>H</em>-pyrrole;α-Methylpyrrole;2-Methylpyrrole;NSC 81346",
    "duplicated_cas_no": "",
    "SMILES": "CC1=CC=CN1",
    "meta_data": {
        "InChI": "InChI=1S/C5H7N/c1-5-3-2-4-6-5/h2-4,6H,1H3",
        "InChIKey": null,
        "Canonical SMILES": "C1=CNC(=C1)C",
        "Molecular Formula": "C<sub>5</sub>H<sub>7</sub>N",
        "Molecular Mass": "81.12",
        "Boiling Point": "147 °C",
        "Melting Point": "-35.6 °C",
        "Density": "0.9438 g/cm³ @ Temp: 20 °C"
    }
}