{
    "cas_no": "18378-20-6",
    "key_name": "7-Benzylamino-4-nitro-2,1,3-benzoxadiazole",
    "cn_name": "4-苄氨基-7-硝基苯并-2-氧杂-1,3-二唑;",
    "alternate_name": "2,1,3-Benzoxadiazol-4-amine, 7-nitro-<em>N</em>-(phenylmethyl)-;Benzofurazan, 4-(benzylamino)-7-nitro-;4-Benzofurazanamine, 7-nitro-<em>N</em>-(phenylmethyl)-;7-Nitro-<em>N</em>-(phenylmethyl)-2,1,3-benzoxadiazol-4-amine;7-Benzylamino-4-nitro-2,1,3-benzoxadiazole;NSC 240867;<em>N</em>-Benzyl-7-nitrobenzo[<em>c</em>][1,2,5]oxadiazol-4-amine",
    "duplicated_cas_no": "",
    "SMILES": "N(=O)(=O)C=1C=2C(C(NCC3=CC=CC=C3)=CC1)=NON2",
    "meta_data": {
        "InChI": "InChI=1S/C13H10N4O3/c18-17(19)11-7-6-10(12-13(11)16-20-15-12)14-8-9-4-2-1-3-5-9/h1-7,14H,8H2",
        "InChIKey": null,
        "Canonical SMILES": "O=N(=O)C1=CC=C(NCC=2C=CC=CC2)C3=NON=C31",
        "Molecular Formula": "C<sub>13</sub>H<sub>10</sub>N<sub>4</sub>O<sub>3</sub>",
        "Molecular Mass": "270.24",
        "Melting Point": "214-215 °C"
    }
}