{
    "cas_no": "3066-75-9",
    "key_name": "Diethyl 2-propen-1-yl phosphate",
    "cn_name": "磷酸烯丙基二乙酯;",
    "alternate_name": "Phosphoric acid, diethyl 2-propen-1-yl ester;Phosphoric acid, diethyl 2-propenyl ester;Allyl ethyl phosphate ((C<sub>3</sub>H<sub>5</sub>O)(EtO)<sub>2</sub>PO);Diethyl 2-propen-1-yl phosphate;Allyl diethyl phosphate;NSC 23727",
    "duplicated_cas_no": "",
    "SMILES": "P(OCC=C)(OCC)(OCC)=O",
    "meta_data": {
        "InChI": "InChI=1S/C7H15O4P/c1-4-7-11-12(8,9-5-2)10-6-3/h4H,1,5-7H2,2-3H3",
        "InChIKey": null,
        "Canonical SMILES": "O=P(OCC=C)(OCC)OCC",
        "Molecular Formula": "C<sub>7</sub>H<sub>15</sub>O<sub>4</sub>P",
        "Molecular Mass": "194.17",
        "Boiling Point": "110-111 °C @ Press: 11 Torr"
    }
}