{
    "cas_no": "18791-78-1",
    "key_name": "4-Bromo-3-thiophenecarboxaldehyde",
    "cn_name": null,
    "alternate_name": "3-Thiophenecarboxaldehyde, 4-bromo-;4-Bromo-3-thiophenecarboxaldehyde;4-Bromo-3-formylthiophene;3-Bromo-4-formylthiophene;4-Bromo-3-thiophenecarbaldehyde",
    "duplicated_cas_no": "",
    "SMILES": "C(=O)C=1C(Br)=CSC1",
    "meta_data": {
        "InChI": "InChI=1S/C5H3BrOS/c6-5-3-8-2-4(5)1-7/h1-3H",
        "InChIKey": null,
        "Canonical SMILES": "O=CC1=CSC=C1Br",
        "Molecular Formula": "C<sub>5</sub>H<sub>3</sub>BrOS",
        "Molecular Mass": "191.05",
        "Boiling Point": "108-111.5 °C @ Press: 11 Torr"
    }
}