{
    "cas_no": "2067-84-7",
    "key_name": "1,4-Dihydropyrido[2,3-<em>b</em>]pyrazine-2,3-dione",
    "cn_name": null,
    "alternate_name": "Pyrido[2,3-<em>b</em>]pyrazine-2,3-dione, 1,4-dihydro-;Pyrido[2,3-<em>b</em>]pyrazine-2,3-diol;1,4-Dihydropyrido[2,3-<em>b</em>]pyrazine-2,3-dione;2,3-Dihydroxypyrido[2,3-<em>b</em>]pyrazine;2,3-Dihydroxy-1,4,5-triazanaphthalene;NSC 91561",
    "duplicated_cas_no": "",
    "SMILES": "O=C1NC=2C(NC1=O)=NC=CC2",
    "meta_data": {
        "InChI": "InChI=1S/C7H5N3O2/c11-6-7(12)10-5-4(9-6)2-1-3-8-5/h1-3H,(H,9,11)(H,8,10,12)",
        "InChIKey": null,
        "Canonical SMILES": "O=C1NC2=NC=CC=C2NC1=O",
        "Molecular Formula": "C<sub>7</sub>H<sub>5</sub>N<sub>3</sub>O<sub>2</sub>",
        "Molecular Mass": "163.13",
        "Melting Point": "&gt;300 °C"
    }
}