{
    "cas_no": "6966-45-6",
    "key_name": "(4-Chlorophenyl)methanesulfonyl chloride",
    "cn_name": null,
    "alternate_name": "Benzenemethanesulfonyl chloride, 4-chloro-;α-Toluenesulfonyl chloride, <em>p</em>-chloro-;4-Chlorobenzenemethanesulfonyl chloride;(<em>p</em>-Chlorophenyl)methanesulfonyl chloride;<em>p</em>-Chlorobenzylsulfonyl chloride;(4-Chlorophenyl)methanesulfonyl chloride;4-Chlorobenzylsulfonyl chloride;NSC 18788;(4-Chlorophenyl)methanesulfonic acid chloride",
    "duplicated_cas_no": "",
    "SMILES": "C(S(Cl)(=O)=O)C1=CC=C(Cl)C=C1",
    "meta_data": {
        "InChI": "InChI=1S/C7H6Cl2O2S/c8-7-3-1-6(2-4-7)5-12(9,10)11/h1-4H,5H2",
        "InChIKey": null,
        "Canonical SMILES": "O=S(=O)(Cl)CC1=CC=C(Cl)C=C1",
        "Molecular Formula": "C<sub>7</sub>H<sub>6</sub>Cl<sub>2</sub>O<sub>2</sub>S",
        "Molecular Mass": "225.09",
        "Melting Point": "90-91 °C"
    }
}