{
    "cas_no": "79124-76-8",
    "key_name": "3-(3,4-Dichlorophenoxy)benzaldehyde",
    "cn_name": "3-(3,4-二氯苯氧基)苯甲醛;",
    "alternate_name": "Benzaldehyde, 3-(3,4-dichlorophenoxy)-;3-(3,4-Dichlorophenoxy)benzaldehyde;[3-(3,4-Dichlorophenoxy)phenyl]formaldehyde",
    "duplicated_cas_no": "83365-23-5",
    "SMILES": "O(C1=CC(C=O)=CC=C1)C2=CC(Cl)=C(Cl)C=C2",
    "meta_data": {
        "InChI": "InChI=1S/C13H8Cl2O2/c14-12-5-4-11(7-13(12)15)17-10-3-1-2-9(6-10)8-16/h1-8H",
        "InChIKey": null,
        "Canonical SMILES": "O=CC=1C=CC=C(OC2=CC=C(Cl)C(Cl)=C2)C1",
        "Molecular Formula": "C<sub>13</sub>H<sub>8</sub>Cl<sub>2</sub>O<sub>2</sub>",
        "Molecular Mass": "267.11",
        "Melting Point": "103 °C"
    }
}