{
    "cas_no": "1619-58-5",
    "key_name": "Butanoic acid, 2-cyano-, ethyl ester",
    "cn_name": null,
    "alternate_name": "Butanoic acid, 2-cyano-, ethyl ester;Butyric acid, 2-cyano-, ethyl ester;Butyric acid, α-cyano-, Et ester;Ethyl 2-cyanobutyrate;Ethyl α-cyanobutyrate;Ethyl 2-cyanobutanoate;NSC 1101",
    "duplicated_cas_no": "",
    "SMILES": "C(C(OCC)=O)(CC)C#N",
    "meta_data": {
        "InChI": "InChI=1S/C7H11NO2/c1-3-6(5-8)7(9)10-4-2/h6H,3-4H2,1-2H3",
        "InChIKey": null,
        "Canonical SMILES": "N#CC(C(=O)OCC)CC",
        "Molecular Formula": "C<sub>7</sub>H<sub>11</sub>NO<sub>2</sub>",
        "Molecular Mass": "141.17",
        "Boiling Point": "95.5 °C @ Press: 13.5 Torr",
        "Density": "0.9836 g/cm³ @ Temp: 25 °C"
    }
}