{
    "cas_no": "3886-69-9",
    "key_name": "(+)-Phenylethylamine",
    "cn_name": "R(+)-alpha-苯乙胺;R(+)-alpha-甲基苄胺;",
    "alternate_name": "Benzenemethanamine, α-methyl-, (α<em>R</em>)-;Benzylamine, α-methyl-, (<em>R</em>)-(+)-;Benzenemethanamine, α-methyl-, (<em>R</em>)-;Benzylamine, α-methyl-, <em>d</em>-;(α<em>R</em>)-α-Methylbenzenemethanamine;(+)-α-Phenylethylamine;(+)-α-Methylbenzylamine;<span class=\"text-smallcaps\">D</span>-α-Methylbenzylamine;<span class=\"text-smallcaps\">D</span>-(+)-α-Phenylethylamine;(<em>R</em>)-α-Phenethylamine;(<em>R</em>)-(+)-α-Phenylethylamine;(+)-(<em>R</em>)-α-Phenylethylamine;(+)-1-Phenylethylamine;(+)-(<em>R</em>)-α-Methylbenzylamine;<em>d</em>-1-Phenylethylamine;(<em>R</em>)-α-Methylbenzenemethanamine;<span class=\"text-smallcaps\">D</span>-Phenethylamine;(+)-α-Phenethylamine;<em>R</em>-(+)-Methylbenzylamine;(+)-(<em>R</em>)-1-Phenylethylamine;(<em>R</em>)-α-Phenylethylamine;(<em>R</em>)-(+)-α-Phenethylamine;<span class=\"text-smallcaps\">D</span>-(+)-1-Phenylethylamine;<span class=\"text-smallcaps\">D</span>-α-Phenethylamine;(+)-α-Methylbenzenemethanamine;(+)-(<em>R</em>)-1-Phenethylamine;(<em>R</em>)-Phenethylamine;(<em>R</em>)-1-Amino-1-phenylethane;(<em>R</em>)-(+)-1-Phenethylamine;(+)-Phenylethylamine;(+)-1-Amino-1-phenylethane;(<em>R</em>)-1-Phenethylamine;<span class=\"text-smallcaps\">D</span>-1-Phenylethylamine;(<em>R</em>)-α-Aminoethylbenzene;<span class=\"text-smallcaps\">D</span>-(+)-α-Methylbenzylamine;(<em>R</em>)-(+)-1-Phenylethylamine;(<em>R</em>)-(+)-1-Methylbenzylamine;(<em>R</em>)-1-Phenylethanamine;(<em>R</em>)-(+)-Phenethylamine;(<em>R</em>)-1-Aminoethylbenzene;(1<em>R</em>)-1-Phenyl-1-ethanamine;(<em>R</em>)-Phenylethylamine;(1<em>R</em>)-1-Phenylethanamine;(<em>R</em>)-(+)-α-Methylbenzylamine;(1<em>R</em>)-1-Phenylethylamine;(<em>R</em>)-α-Methylbenzylamine;(<em>R</em>)-1-Phenylethylamine;(+)-[(1<em>R</em>)-1-Phenylethyl]amine;(1<em>R</em>)-Phenylethylamine;(R)-Phenylethylamine;(<em>R</em>)-1-Phenyl-1-ethanamine;(<em>R</em>)-(+)-Alpha-methylbenzylamine;(<em>R</em>)-(+)-1-Phenylethanamine;(+)-1-Phenethylamine;(<em>R</em>)-Methylbenzylamine;(1R)-1-Phenylethanamine;(1R)-1-Phenylethan-1-amine;(+)-1-Phenylethan-1-amine;(<em>R</em>)-Alpha-methylbenzylamine;<em>R</em>-(+)-Phenylethylamine;R-(+)-Phenylethylamine",
    "duplicated_cas_no": "",
    "SMILES": "[C@H](C)(N)C1=CC=CC=C1",
    "meta_data": {
        "InChI": "InChI=1S/C8H11N/c1-7(9)8-5-3-2-4-6-8/h2-7H,9H2,1H3/t7-/m1/s1",
        "InChIKey": null,
        "Canonical SMILES": "NC(C=1C=CC=CC1)C",
        "Molecular Formula": "C<sub>8</sub>H<sub>11</sub>N",
        "Molecular Mass": "121.18",
        "Boiling Point": "184-186 °C",
        "Melting Point": "142.5-145.5 °C"
    }
}