{
    "cas_no": "1314-80-3",
    "key_name": "Phosphorus sulfide (P<sub>2</sub>S<sub>5</sub>)",
    "cn_name": "五硫化二磷;五硫化磷;",
    "alternate_name": "Phosphorus sulfide (P<sub>2</sub>S<sub>5</sub>);Phosphoric sulfide;Phosphorus pentasulfide;Phosphorus persulfide;Thiophosphoric anhydride;Phosphorus pentasulfide (P<sub>2</sub>S<sub>5</sub>);Phosphorus sulfide (P<sub>4</sub>S<sub>10</sub>);Tetraphosphorus decasulfide;Phosphorus pentasulfide (P<sub>4</sub>S<sub>10</sub>);Diphosphorus pentasulfide;Sulfur phosphenodithioite (S(PS<sub>2</sub>)<sub>2</sub>)",
    "duplicated_cas_no": "12066-62-5;16857-09-3;129680-27-9;132620-99-6;337913-53-8;341007-60-1;342401-47-2;409325-03-7;952005-45-7;2764904-33-6",
    "SMILES": "[P].[S]",
    "meta_data": {
        "InChI": "InChI=1S/P.S",
        "InChIKey": null,
        "Canonical SMILES": "[P].[S]",
        "Molecular Formula": "P.S",
        "Molecular Mass": "",
        "Boiling Point": "513-515 °C",
        "Melting Point": "286-290 °C",
        "Density": "2.062 g/cm³"
    }
}