{
    "uri": "substance/pt/1314803",
    "rn": "1314-80-3",
    "name": "Phosphorus sulfide (P<sub>2</sub>S<sub>5</sub>)",
    "images": [],
    "inchi": "InChI=1S/P.S",
    "inchiKey": "InChIKey=QCJQWJKKTGJDCM-UHFFFAOYSA-N",
    "smile": "[P].[S]",
    "canonicalSmile": "[P].[S]",
    "molecularFormula": "P.S",
    "molecularMass": "",
    "experimentalProperties": [
        {
            "name": "Boiling Point",
            "property": "513-515 °C",
            "sourceNumber": 1
        },
        {
            "name": "Melting Point",
            "property": "286-290 °C",
            "sourceNumber": 1
        },
        {
            "name": "Density",
            "property": "2.062 g/cm³",
            "sourceNumber": 2
        }
    ],
    "propertyCitations": [
        {
            "docUri": "",
            "sourceNumber": 1,
            "source": "Hazardous Substances Data Bank data were obtained from the National Library of Medicine (US)"
        },
        {
            "docUri": "document/pt/document/22714059",
            "sourceNumber": 2,
            "source": "Golovkov, M. P.; Trans. State Inst. Applied Chem (U. S. S. R.), (1935), No. 23, 17-30, CAplus"
        }
    ],
    "synonyms": [
        "Phosphorus sulfide (P<sub>2</sub>S<sub>5</sub>)",
        "Phosphoric sulfide",
        "Phosphorus pentasulfide",
        "Phosphorus persulfide",
        "Thiophosphoric anhydride",
        "Phosphorus pentasulfide (P<sub>2</sub>S<sub>5</sub>)",
        "Phosphorus sulfide (P<sub>4</sub>S<sub>10</sub>)",
        "Tetraphosphorus decasulfide",
        "Phosphorus pentasulfide (P<sub>4</sub>S<sub>10</sub>)",
        "Diphosphorus pentasulfide",
        "Sulfur phosphenodithioite (S(PS<sub>2</sub>)<sub>2</sub>)"
    ],
    "replacedRns": [
        "12066-62-5",
        "16857-09-3",
        "129680-27-9",
        "132620-99-6",
        "337913-53-8",
        "341007-60-1",
        "342401-47-2",
        "409325-03-7",
        "952005-45-7",
        "2764904-33-6"
    ],
    "hasMolfile": true,
    "source": "https://commonchemistry.cas.org/detail?cas_rn=1314-80-3"
}