{
    "cas_no": "3189-43-3",
    "key_name": "2,2,3,3-Oxiranetetracarbonitrile",
    "cn_name": "氧化四氯乙烯;",
    "alternate_name": "2,2,3,3-Oxiranetetracarbonitrile;1,1,2,2-Ethanetetracarbonitrile, 1,2-epoxy-;Oxiranetetracarbonitrile;Tetracyanoethylene oxide;Tetracyanooxirane",
    "duplicated_cas_no": "",
    "SMILES": "C(#N)C1(C#N)C(C#N)(C#N)O1",
    "meta_data": {
        "InChI": "InChI=1S/C6N4O/c7-1-5(2-8)6(3-9,4-10)11-5",
        "InChIKey": null,
        "Canonical SMILES": "N#CC1(C#N)OC1(C#N)C#N",
        "Molecular Formula": "C<sub>6</sub>N<sub>4</sub>O",
        "Molecular Mass": "144.09",
        "Melting Point": "177-178 °C"
    }
}