{
    "cas_no": "88-21-1",
    "key_name": "2-Aminobenzenesulfonic acid",
    "cn_name": "2-氨基苯磺酸;邻氨基苯磺酸;",
    "alternate_name": "Benzenesulfonic acid, 2-amino-;Benzenesulfonic acid, <em>o</em>-amino-;2-Aminobenzenesulfonic acid;Aniline-<em>o</em>-sulfonic acid;Orthanilic acid;<em>o</em>-Sulfanilic acid;2-Anilinesulfonic acid;<em>o</em>-Aminobenzenesulfonic acid;1-Aminobenzene-2-sulfonic acid;<em>o</em>-Aminophenylsulfonic acid;2-Aminophenylsulfonic acid;2-Sulfoaniline;NSC 147;2-Aminobenzene-1-sulfonic acid",
    "duplicated_cas_no": "",
    "SMILES": "S(=O)(=O)(O)C1=C(N)C=CC=C1",
    "meta_data": {
        "InChI": "InChI=1S/C6H7NO3S/c7-5-3-1-2-4-6(5)11(8,9)10/h1-4H,7H2,(H,8,9,10)",
        "InChIKey": null,
        "Canonical SMILES": "O=S(=O)(O)C=1C=CC=CC1N",
        "Molecular Formula": "C<sub>6</sub>H<sub>7</sub>NO<sub>3</sub>S",
        "Molecular Mass": "173.19",
        "Melting Point": "&gt;320 °C (decomp)"
    }
}