{
    "cas_no": "4533-95-3",
    "key_name": "2-Chloro-5-nitrobenzenesulfonyl chloride",
    "cn_name": "2-氯-5-硝基苯磺酰氯;",
    "alternate_name": "Benzenesulfonyl chloride, 2-chloro-5-nitro-;2-Chloro-5-nitrobenzenesulfonyl chloride;2-Chloro-5-nitrophenylsulfonyl chloride;6-Chloro-3-nitrobenzenesulfonyl chloride;NSC 350627;2-Chloro-5-nitrobenzene-1-sulfonyl chloride",
    "duplicated_cas_no": "",
    "SMILES": "S(Cl)(=O)(=O)C1=CC(N(=O)=O)=CC=C1Cl",
    "meta_data": {
        "InChI": "InChI=1S/C6H3Cl2NO4S/c7-5-2-1-4(9(10)11)3-6(5)14(8,12)13/h1-3H",
        "InChIKey": null,
        "Canonical SMILES": "O=N(=O)C1=CC=C(Cl)C(=C1)S(=O)(=O)Cl",
        "Molecular Formula": "C<sub>6</sub>H<sub>3</sub>Cl<sub>2</sub>NO<sub>4</sub>S",
        "Molecular Mass": "256.06",
        "Melting Point": "89 °C"
    }
}