{
    "cas_no": "38304-91-5",
    "key_name": "Minoxidil",
    "cn_name": "米诺地尔;6-(1-哌啶基)-2,4-嘧啶二胺-3-氧化物;",
    "alternate_name": "2,4-Pyrimidinediamine, 6-(1-piperidinyl)-, 3-oxide;Minoxidil;2,4-Diamino-6-piperidinopyrimidine 3-oxide;Loniten;2,4-Diamino-6-piperidinopyrimidine 3-<em>N</em>-oxide;RiUP;Mintop;Rogaine;Alostil;Prexidil;PDP;Pierminox;U 10858;Minoximen;Lonolox;Alopexil;Tricoxidil;Normoxidil;6-Amino-1,2-dihydro-1-hydroxy-2-imino-4-piperidinopyrimidine;Riup X5;2,6-Diamino-4-(piperidin-1-yl)pyrimidine 1-oxide;2,6-Diamino-4-(piperidin-1-yl)pyrimidin-1-ium-1-olate;2,4-Diamino-6-(1-piperidinyl)-pyrimidine-3-oxide;Regro EX 5;MeSH ID: D008914",
    "duplicated_cas_no": "",
    "SMILES": "NC1=CC(=NC(N)=N1=O)N2CCCCC2",
    "meta_data": {
        "InChI": "InChI=1S/C9H15N5O/c10-7-6-8(12-9(11)14(7)15)13-4-2-1-3-5-13/h6H,1-5,10H2,(H2,11,12)",
        "InChIKey": null,
        "Canonical SMILES": "O=N1=C(N=C(C=C1N)N2CCCCC2)N",
        "Molecular Formula": "C<sub>9</sub>H<sub>15</sub>N<sub>5</sub>O",
        "Molecular Mass": "209.25",
        "Melting Point": "248 °C"
    }
}