{
    "cas_no": "2050-47-7",
    "key_name": "BDE 15",
    "cn_name": "4,4\"-二溴二苯醚;",
    "alternate_name": "Benzene, 1,1′-oxybis[4-bromo-;Ether, bis(<em>p</em>-bromophenyl);1,1′-Oxybis[4-bromobenzene];Bis(<em>p</em>-bromophenyl) ether;4,4′-Dibromodiphenyl ether;<em>p</em>,<em>p</em>′-Dibromodiphenyl ether;Bis(4-bromophenyl) ether;Bis(bromophenyl) ether;BDE 15;PBDE 15;NSC 1787;NSC 9487;Di(4-bromophenyl) ether;3,2′-Dibromodiphenyl ether",
    "duplicated_cas_no": "",
    "SMILES": "O(C1=CC=C(Br)C=C1)C2=CC=C(Br)C=C2",
    "meta_data": {
        "InChI": "InChI=1S/C12H8Br2O/c13-9-1-5-11(6-2-9)15-12-7-3-10(14)4-8-12/h1-8H",
        "InChIKey": null,
        "Canonical SMILES": "BrC1=CC=C(OC2=CC=C(Br)C=C2)C=C1",
        "Molecular Formula": "C<sub>12</sub>H<sub>8</sub>Br<sub>2</sub>O",
        "Molecular Mass": "328.00",
        "Boiling Point": "339 °C",
        "Melting Point": "60.5 °C"
    }
}