{
    "cas_no": "20358-03-6",
    "key_name": "5-Bromo-2-benzothiazolamine",
    "cn_name": "2-氨基-5-溴噻唑;",
    "alternate_name": "2-Benzothiazolamine, 5-bromo-;Benzothiazole, 2-amino-5-bromo-;5-Bromo-2-benzothiazolamine;(5-Bromobenzothiazol-2-yl)amine;2-Amino-5-bromobenzothiazole;5-Bromobenzo[<em>d</em>]thiazol-2-amine;2-Amino-5-bromo-1,3-benzothiazole;5-Bromo-2-aminobenzothiazole",
    "duplicated_cas_no": "",
    "SMILES": "NC=1SC=2C(N1)=CC(Br)=CC2",
    "meta_data": {
        "InChI": "InChI=1S/C7H5BrN2S/c8-4-1-2-6-5(3-4)10-7(9)11-6/h1-3H,(H2,9,10)",
        "InChIKey": null,
        "Canonical SMILES": "BrC=1C=CC=2SC(=NC2C1)N",
        "Molecular Formula": "C<sub>7</sub>H<sub>5</sub>BrN<sub>2</sub>S",
        "Molecular Mass": "229.10",
        "Melting Point": "195-197 °C"
    }
}