{
    "cas_no": "10466-65-6",
    "key_name": "Potassium perrhenate",
    "cn_name": "过铼酸钾;高铼酸钾;",
    "alternate_name": "Rhenate (ReO<sub>4</sub><sup>1-</sup>), potassium (1:1), (<em>T</em>-4)-;Perrhenic acid (HReO<sub>4</sub>), potassium salt;Rhenate (ReO<sub>4</sub><sup>1-</sup>), potassium, (<em>T</em>-4)-;Potassium perrhenate;Potassium rhenium oxide (KReO<sub>4</sub>);Potassium perrhenate (KReO<sub>4</sub>);Potassium perrhenate(1-);Potassium rhenate (KReO<sub>4</sub>);Potassium tetraoxorhenate(1-);NSC 339905",
    "duplicated_cas_no": "31018-22-1",
    "SMILES": "[Re-](=O)(=O)(=O)=O.[K+]",
    "meta_data": {
        "InChI": "InChI=1S/K.4O.Re/q+1;;;;;-1",
        "InChIKey": null,
        "Canonical SMILES": "[K+].O=[Re-](=O)(=O)=O",
        "Molecular Formula": "K.O<sub>4</sub>Re",
        "Molecular Mass": "",
        "Boiling Point": "1370 °C",
        "Melting Point": "552-553 °C"
    }
}