{
    "cas_no": "16230-35-6",
    "key_name": "<em>N</em>,<em>N</em>′-(Ethoxymethylsilylene)bis[<em>N</em>-methylbenzamide]",
    "cn_name": "双(N-甲基苯甲酰胺)乙氧基甲基硅烷;",
    "alternate_name": "Benzamide, <em>N</em>,<em>N</em>′-(ethoxymethylsilylene)bis[<em>N</em>-methyl-;<em>N</em>,<em>N</em>′-(Ethoxymethylsilylene)bis[<em>N</em>-methylbenzamide];Bis(<em>N</em>-methylbenzamido)methylethoxysilane;Bis(<em>N</em>-methylbenzamido)ethoxymethylsilane;SIB 1610.0",
    "duplicated_cas_no": "",
    "SMILES": "[Si](N(C(=O)C1=CC=CC=C1)C)(N(C(=O)C2=CC=CC=C2)C)(OCC)C",
    "meta_data": {
        "InChI": "InChI=1S/C19H24N2O3Si/c1-5-24-25(4,20(2)18(22)16-12-8-6-9-13-16)21(3)19(23)17-14-10-7-11-15-17/h6-15H,5H2,1-4H3",
        "InChIKey": null,
        "Canonical SMILES": "O=C(C=1C=CC=CC1)N(C)[Si](OCC)(N(C(=O)C=2C=CC=CC2)C)C",
        "Molecular Formula": "C<sub>19</sub>H<sub>24</sub>N<sub>2</sub>O<sub>3</sub>Si",
        "Molecular Mass": "356.49",
        "Boiling Point": "210 °C @ Press: 1 Torr",
        "Melting Point": "-13 °C",
        "Density": "1.130 g/cm³"
    }
}