{
    "cas_no": "106391-86-0",
    "key_name": "1,1-Dimethylethyl <em>N</em>-[(1<em>R</em>)-2-hydroxy-1-methylethyl]carbamate",
    "cn_name": "N-Boc-D-丙氨醇;(R)-(+)-2-(叔丁氧羰基氨基)-1-丙醇;",
    "alternate_name": "Carbamic acid, <em>N</em>-[(1<em>R</em>)-2-hydroxy-1-methylethyl]-, 1,1-dimethylethyl ester;Carbamic acid, (2-hydroxy-1-methylethyl)-, 1,1-dimethylethyl ester, (<em>R</em>)-;Carbamic acid, [(1<em>R</em>)-2-hydroxy-1-methylethyl]-, 1,1-dimethylethyl ester;1,1-Dimethylethyl <em>N</em>-[(1<em>R</em>)-2-hydroxy-1-methylethyl]carbamate;(<em>R</em>)-2-(<em>N</em>-<em>tert</em>-Butoxycarbonyl)aminopropan-1-ol;(<em>R</em>)-2-(<em>tert</em>-Butoxycarbonylamino)-1-propanol;<em>N</em>-(<em>tert</em>-Butoxycarbonyl)-<span class=\"text-smallcaps\">D</span>-alaninol;(R)-2-(<em>tert</em>-Butoxycarbonylamino)-1-propanol;((<em>R</em>)-2-Hydroxy-1-methylethyl)carbamic acid tert-butyl ester;(R)-2-[(<em>tert</em>-Butyloxycarbonyl)amino]propan-1-ol;(<em>R</em>)-(+)-2-(<em>tert</em>-Butoxycarbonylamino)-1-propanol;<em>tert</em>-Butyl ((1<em>R</em>)-2-hydroxy-1-methylethyl)carbamate;((1<em>R</em>)-2-Hydroxy-1-methylethyl)carbamic acid tert-butyl ester;<em>tert</em>-Butyl ((<em>R</em>)-1-hydroxypropan-2-yl)carbamate;<em>N</em>-((<em>R</em>)-2-Hydroxy-1-methylethyl)carbamic acid tert-butyl ester;1,1-Dimethylethyl ((1<em>R</em>)-2-hydroxy-1-methylethyl)carbamate;((R)-2-Hydroxy-1-methyl-ethyl)-carbamic acid tert-butyl ester;Boc-<span class=\"text-smallcaps\">D</span>-alaninol;<em>tert</em>-Butyl <em>N</em>-((<em>R</em>)-2-hydroxy-1-methylethyl)carbamate;<em>tert</em>-Butyl ((2<em>R</em>)-1-hydroxypropan-2-yl)carbamate;(<em>R</em>)-<em>N</em>-Boc-2-aminopropan-1-ol;<em>tert</em>-Butyl <em>N</em>-[(2R)-1-hydroxypropan-2-yl]carbamate;<em>tert</em>-Butyl (R)-(1-hydroxypropan-2-yl)carbamate",
    "duplicated_cas_no": "2894789-62-7",
    "SMILES": "O(C(C)(C)C)C(N[C@@H](CO)C)=O",
    "meta_data": {
        "InChI": "InChI=1S/C8H17NO3/c1-6(5-10)9-7(11)12-8(2,3)4/h6,10H,5H2,1-4H3,(H,9,11)/t6-/m1/s1",
        "InChIKey": null,
        "Canonical SMILES": "O=C(OC(C)(C)C)NC(C)CO",
        "Molecular Formula": "C<sub>8</sub>H<sub>17</sub>NO<sub>3</sub>",
        "Molecular Mass": "175.23",
        "Melting Point": "60 °C"
    }
}