{
    "cas_no": "110871-86-8",
    "key_name": "Sparfloxacin",
    "cn_name": null,
    "alternate_name": "3-Quinolinecarboxylic acid, 5-amino-1-cyclopropyl-7-[(3<em>R</em>,5<em>S</em>)-3,5-dimethyl-1-piperazinyl]-6,8-difluoro-1,4-dihydro-4-oxo-, <em>rel</em>-;3-Quinolinecarboxylic acid, 5-amino-1-cyclopropyl-7-(3,5-dimethyl-1-piperazinyl)-6,8-difluoro-1,4-dihydro-4-oxo-, <em>cis</em>-;<em>rel</em>-5-Amino-1-cyclopropyl-7-[(3<em>R</em>,5<em>S</em>)-3,5-dimethyl-1-piperazinyl]-6,8-difluoro-1,4-dihydro-4-oxo-3-quinolinecarboxylic acid;AT 4140;Sparfloxacin;CI 978;PD 131501;CP 103826;Zagam;Spara;PD 1315-1;Sparcin;Parox;Salocin 120",
    "duplicated_cas_no": "",
    "SMILES": "FC1=C2C(C(=O)C(C(O)=O)=CN2C3CC3)=C(N)C(F)=C1N4C[C@H](C)N[C@H](C)C4",
    "meta_data": {
        "InChI": "InChI=1/C19H22F2N4O3/c1-8-5-24(6-9(2)23-8)17-13(20)15(22)12-16(14(17)21)25(10-3-4-10)7-11(18(12)26)19(27)28/h7-10,23H,3-6,22H2,1-2H3,(H,27,28)/t8-,9+",
        "InChIKey": null,
        "Canonical SMILES": "O=C(O)C1=CN(C2=C(F)C(=C(F)C(N)=C2C1=O)N3CC(NC(C)C3)C)C4CC4",
        "Molecular Formula": "C<sub>19</sub>H<sub>22</sub>F<sub>2</sub>N<sub>4</sub>O<sub>3</sub>",
        "Molecular Mass": "392.40",
        "Melting Point": "266-269 °C (decomp)"
    }
}