{
    "cas_no": "256-81-5",
    "key_name": "5<em>H</em>-Dibenzo[<em>a</em>,<em>d</em>]cycloheptene",
    "cn_name": null,
    "alternate_name": "5<em>H</em>-Dibenzo[<em>a</em>,<em>d</em>]cycloheptene;Dibenzo[<em>a</em>,<em>e</em>]cycloheptatriene;Suberene;2,3:6,7-Dibenzo-4-suberene;1,2:5,6-Dibenzotropilidene;2,3:6,7-Dibenzocycloheptatriene;Dibenzo[<em>a</em>,<em>d</em>]cycloheptatriene;1,2:5,6-Dibenzocycloheptatriene",
    "duplicated_cas_no": "",
    "SMILES": "C1=2C(C=CC=3C(C1)=CC=CC3)=CC=CC2",
    "meta_data": {
        "InChI": "InChI=1S/C15H12/c1-3-7-14-11-15-8-4-2-6-13(15)10-9-12(14)5-1/h1-10H,11H2",
        "InChIKey": null,
        "Canonical SMILES": "C=1C=CC2=C(C1)C=CC=3C=CC=CC3C2",
        "Molecular Formula": "C<sub>15</sub>H<sub>12</sub>",
        "Molecular Mass": "192.26",
        "Boiling Point": "175-195 °C @ Press: 20 Torr",
        "Melting Point": "131 °C"
    }
}