{
    "cas_no": "42599-18-8",
    "key_name": "<em>B</em>-(1<em>E</em>)-1-Hexenylboronic acid",
    "cn_name": null,
    "alternate_name": "Boronic acid, <em>B</em>-(1<em>E</em>)-1-hexenyl-;Boronic acid, 1-hexenyl-, (<em>E</em>)-;Boronic acid, (1<em>E</em>)-1-hexenyl-;<em>B</em>-(1<em>E</em>)-1-Hexenylboronic acid;<em>trans</em>-1-Hexenylboronic acid;(<em>E</em>)-1-Hexenylboronic acid;[(1<em>E</em>)-1-hexenyl]boronic acid;<em>trans</em>-1-Hexen-1-ylboronic acid;(<em>E</em>)-1-Hexen-1-ylboronic acid;((1<em>E</em>)-Hex-1-en-1-yl)boronic acid",
    "duplicated_cas_no": "",
    "SMILES": "C(=C/B(O)O)\\CCCC",
    "meta_data": {
        "InChI": "InChI=1S/C6H13BO2/c1-2-3-4-5-6-7(8)9/h5-6,8-9H,2-4H2,1H3/b6-5+",
        "InChIKey": null,
        "Canonical SMILES": "OB(O)C=CCCCC",
        "Molecular Formula": "C<sub>6</sub>H<sub>13</sub>BO<sub>2</sub>",
        "Molecular Mass": "127.98",
        "Melting Point": "90-93 °C"
    }
}