{
    "cas_no": "598-41-4",
    "key_name": "Glycinamide",
    "cn_name": "甘氨酰胺;2-氨基乙酰胺;",
    "alternate_name": "Acetamide, 2-amino-;Glycinamide;2-Aminoacetamide;Glycine amide;Aminoacetamide",
    "duplicated_cas_no": "",
    "SMILES": "C(CN)(N)=O",
    "meta_data": {
        "InChI": "InChI=1S/C2H6N2O/c3-1-2(4)5/h1,3H2,(H2,4,5)",
        "InChIKey": null,
        "Canonical SMILES": "O=C(N)CN",
        "Molecular Formula": "C<sub>2</sub>H<sub>6</sub>N<sub>2</sub>O",
        "Molecular Mass": "74.08",
        "Melting Point": "65-67 °C"
    }
}