{
    "cas_no": "593-82-8",
    "key_name": "Hydrazine, 1,1-dimethyl-, monohydrochloride",
    "cn_name": "1，1-二甲基肼盐酸盐;1，1-二甲基肼盐酸盐;",
    "alternate_name": "Hydrazine, 1,1-dimethyl-, monohydrochloride;1,1-Dimethylhydrazine hydrochloride;<em>N</em>,<em>N</em>-Dimethylhydrazine hydrochloride",
    "duplicated_cas_no": "",
    "SMILES": "N(C)(C)N.Cl",
    "meta_data": {
        "InChI": "InChI=1S/C2H8N2.ClH/c1-4(2)3;/h3H2,1-2H3;1H",
        "InChIKey": null,
        "Canonical SMILES": "Cl.NN(C)C",
        "Molecular Formula": "C<sub>2</sub>H<sub>8</sub>N<sub>2</sub>.ClH",
        "Molecular Mass": "",
        "Melting Point": "60 °C"
    }
}