{
    "cas_no": "79995-67-8",
    "key_name": "Blumeatin B",
    "cn_name": null,
    "alternate_name": "4<em>H</em>-1-Benzopyran-4-one, 2,3-dihydro-3,5-dihydroxy-2-(3-hydroxy-4-methoxyphenyl)-7-methoxy-, (2<em>R</em>,3<em>R</em>)-;4<em>H</em>-1-Benzopyran-4-one, 2,3-dihydro-3,5-dihydroxy-2-(3-hydroxy-4-methoxyphenyl)-7-methoxy-, (2<em>R</em>-<em>trans</em>)-;(2<em>R</em>,3<em>R</em>)-2,3-Dihydro-3,5-dihydroxy-2-(3-hydroxy-4-methoxyphenyl)-7-methoxy-4<em>H</em>-1-benzopyran-4-one;Blumeatin B;(+)-4′,7-Dimethoxy-(2<em>R</em>,3<em>R</em>)-dihydroquercetin;(+)-4′,7-Di-<em>O</em>-methyl-(2<em>R</em>,3<em>R</em>)-dihydroquercetin;(2<em>R</em>,3<em>R</em>)-dihydroquercetin-4′,7-dimethyl ether",
    "duplicated_cas_no": "78128-76-4;851961-74-5;877142-40-0;1355213-19-2;1363384-38-6",
    "SMILES": "O=C1C=2C(O[C@@H]([C@H]1O)C3=CC(O)=C(OC)C=C3)=CC(OC)=CC2O",
    "meta_data": {
        "InChI": "InChI=1S/C17H16O7/c1-22-9-6-11(19)14-13(7-9)24-17(16(21)15(14)20)8-3-4-12(23-2)10(18)5-8/h3-7,16-19,21H,1-2H3/t16-,17+/m0/s1",
        "InChIKey": null,
        "Canonical SMILES": "O=C1C2=C(O)C=C(OC)C=C2OC(C3=CC=C(OC)C(O)=C3)C1O",
        "Molecular Formula": "C<sub>17</sub>H<sub>16</sub>O<sub>7</sub>",
        "Molecular Mass": "332.30",
        "Melting Point": "165-167 °C"
    }
}