{
    "cas_no": "350-90-3",
    "key_name": "2-Fluoro-3-phenyl-2-propenoic acid",
    "cn_name": null,
    "alternate_name": "2-Propenoic acid, 2-fluoro-3-phenyl-;Cinnamic acid, α-fluoro-;2-Fluoro-3-phenyl-2-propenoic acid;α-Fluorocinnamic acid;NSC 102780;2-Fluoro-3-phenylacrylic acid",
    "duplicated_cas_no": "",
    "SMILES": "C(=C(C(O)=O)F)C1=CC=CC=C1",
    "meta_data": {
        "InChI": "InChI=1S/C9H7FO2/c10-8(9(11)12)6-7-4-2-1-3-5-7/h1-6H,(H,11,12)",
        "InChIKey": null,
        "Canonical SMILES": "O=C(O)C(F)=CC=1C=CC=CC1",
        "Molecular Formula": "C<sub>9</sub>H<sub>7</sub>FO<sub>2</sub>",
        "Molecular Mass": "166.15",
        "Melting Point": "156-157 °C"
    }
}