{
    "cas_no": "81445-44-5",
    "key_name": "(2<em>S</em>)-2-(Phenylmethoxy)propanal",
    "cn_name": null,
    "alternate_name": "Propanal, 2-(phenylmethoxy)-, (2<em>S</em>)-;Propanal, 2-(phenylmethoxy)-, (<em>S</em>)-;(2<em>S</em>)-2-(Phenylmethoxy)propanal;(<em>S</em>)-α-(Benzyloxy)propanal;(<em>S</em>)-2-(Benzyloxy)propanal;(<em>S</em>)-2-(Benzyloxy)propionaldehyde;(-)-(<em>S</em>)-2-(Phenylmethoxy)propanal;(-)-(<em>S</em>)-2-(Benzyloxy)propanal;(2<em>S</em>)-2-Benzyloxypropanal;(2S)-2-(Benzyloxy)propanal;(2S)-2-Phenylmethoxypropanal",
    "duplicated_cas_no": "",
    "SMILES": "C(O[C@H](C=O)C)C1=CC=CC=C1",
    "meta_data": {
        "InChI": "InChI=1S/C10H12O2/c1-9(7-11)12-8-10-5-3-2-4-6-10/h2-7,9H,8H2,1H3/t9-/m0/s1",
        "InChIKey": null,
        "Canonical SMILES": "O=CC(OCC=1C=CC=CC1)C",
        "Molecular Formula": "C<sub>10</sub>H<sub>12</sub>O<sub>2</sub>",
        "Molecular Mass": "164.20",
        "Melting Point": "97-99 °C"
    }
}