{
    "cas_no": "52547-00-9",
    "key_name": "5-Isothiazolamine, 3-methyl-, hydrochloride (1:1)",
    "cn_name": "5-氨基-3-甲基-异噻唑盐酸盐;",
    "alternate_name": "5-Isothiazolamine, 3-methyl-, hydrochloride (1:1);5-Isothiazolamine, 3-methyl-, monohydrochloride;5-Amino-3-methylisothiazole monohydrochloride;3-Methylisothiazol-5-amine hydrochloride;5-Amino-3-methylisothiazole hydrochloride;3-Methyl-1,2-thiazol-5-amine hydrochloride;3-Methyl-5-aminoisothiazole hydrochloride",
    "duplicated_cas_no": "",
    "SMILES": "CC=1C=C(N)SN1.Cl",
    "meta_data": {
        "InChI": "InChI=1S/C4H6N2S.ClH/c1-3-2-4(5)7-6-3;/h2H,5H2,1H3;1H",
        "InChIKey": null,
        "Canonical SMILES": "Cl.N=1SC(N)=CC1C",
        "Molecular Formula": "C<sub>4</sub>H<sub>6</sub>N<sub>2</sub>S.ClH",
        "Molecular Mass": "",
        "Melting Point": "240 °C (decomp)"
    }
}