{
    "cas_no": "64488-52-4",
    "key_name": "<em>N</em>-[4-(2-Chloroacetyl)phenyl]methanesulfonamide",
    "cn_name": null,
    "alternate_name": "Methanesulfonamide, <em>N</em>-[4-(2-chloroacetyl)phenyl]-;Methanesulfonamide, <em>N</em>-[4-(chloroacetyl)phenyl]-;<em>N</em>-[4-(2-Chloroacetyl)phenyl]methanesulfonamide;4′-(Chloroacetyl)methanesulfonanilide;2-Chloro-4′-methanesulfonamidoacetophenone;4-(Chloroacetyl)methanesulfonanilide",
    "duplicated_cas_no": "",
    "SMILES": "N(S(C)(=O)=O)C1=CC=C(C(CCl)=O)C=C1",
    "meta_data": {
        "InChI": "InChI=1S/C9H10ClNO3S/c1-15(13,14)11-8-4-2-7(3-5-8)9(12)6-10/h2-5,11H,6H2,1H3",
        "InChIKey": null,
        "Canonical SMILES": "O=C(C1=CC=C(C=C1)NS(=O)(=O)C)CCl",
        "Molecular Formula": "C<sub>9</sub>H<sub>10</sub>ClNO<sub>3</sub>S",
        "Molecular Mass": "247.70",
        "Melting Point": "197.5-199.0 °C"
    }
}