{
    "cas_no": "126-39-6",
    "key_name": "2-Ethyl-2-methyl-1,3-dioxolane",
    "cn_name": "2-乙基-2-甲基-1,3-二氧戊环; 2-乙基-2-甲基-1,3-二恶戊烷;",
    "alternate_name": "1,3-Dioxolane, 2-ethyl-2-methyl-;2-Ethyl-2-methyl-1,3-dioxolane;2-Ethyl-2-methyldioxolane;2-Methyl-2-ethyl-1,3-dioxolane;2-Methyl-2-ethyldioxolane;2-Butanone ethylene ketal;2-Butanone, cyclic 1,2-ethanediyl acetal;NSC 829",
    "duplicated_cas_no": "90641-56-8;957464-74-3",
    "SMILES": "C(C)C1(C)OCCO1",
    "meta_data": {
        "InChI": "InChI=1S/C6H12O2/c1-3-6(2)7-4-5-8-6/h3-5H2,1-2H3",
        "InChIKey": null,
        "Canonical SMILES": "O1CCOC1(C)CC",
        "Molecular Formula": "C<sub>6</sub>H<sub>12</sub>O<sub>2</sub>",
        "Molecular Mass": "116.16",
        "Boiling Point": "115.4-116.2 °C @ Press: 763 Torr",
        "Density": "0.9374 g/cm³ @ Temp: 20 °C"
    }
}