{
    "cas_no": "23082-50-0",
    "key_name": "2′-Chloro-5′-nitroacetophenone",
    "cn_name": null,
    "alternate_name": "Ethanone, 1-(2-chloro-5-nitrophenyl)-;Acetophenone, 2′-chloro-5′-nitro-;1-(2-Chloro-5-nitrophenyl)ethanone;2′-Chloro-5′-nitroacetophenone;2-Chloro-5-nitroacetophenone;1-(2-Chloro-5-nitrophenyl)-ethan-1-one",
    "duplicated_cas_no": "",
    "SMILES": "C(C)(=O)C1=CC(N(=O)=O)=CC=C1Cl",
    "meta_data": {
        "InChI": "InChI=1S/C8H6ClNO3/c1-5(11)7-4-6(10(12)13)2-3-8(7)9/h2-4H,1H3",
        "InChIKey": null,
        "Canonical SMILES": "O=C(C1=CC(=CC=C1Cl)N(=O)=O)C",
        "Molecular Formula": "C<sub>8</sub>H<sub>6</sub>ClNO<sub>3</sub>",
        "Molecular Mass": "199.59",
        "Melting Point": "62 °C"
    }
}