{
    "cas_no": "1483-55-2",
    "key_name": "2-Bromo-5-(trifluoromethyl)benzonitrile",
    "cn_name": "2-溴-5-三氟甲基苯腈;",
    "alternate_name": "Benzonitrile, 2-bromo-5-(trifluoromethyl)-;<em>m</em>-Tolunitrile, 6-bromo-α,α,α-trifluoro-;2-Bromo-5-(trifluoromethyl)benzonitrile;2-Cyano-4-trifluoromethylbromobenzene",
    "duplicated_cas_no": "",
    "SMILES": "C(F)(F)(F)C1=CC(C#N)=C(Br)C=C1",
    "meta_data": {
        "InChI": "InChI=1S/C8H3BrF3N/c9-7-2-1-6(8(10,11)12)3-5(7)4-13/h1-3H",
        "InChIKey": null,
        "Canonical SMILES": "N#CC1=CC(=CC=C1Br)C(F)(F)F",
        "Molecular Formula": "C<sub>8</sub>H<sub>3</sub>BrF<sub>3</sub>N",
        "Molecular Mass": "250.02",
        "Boiling Point": "107-115 °C @ Press: 10 Torr",
        "Melting Point": "50.1 °C"
    }
}