{
    "cas_no": "1940-57-4",
    "key_name": "9-Bromofluorene",
    "cn_name": "9-溴芴;",
    "alternate_name": "9<em>H</em>-Fluorene, 9-bromo-;Fluorene, 9-bromo-;9-Bromo-9<em>H</em>-fluorene;9-Bromofluorene;9-Fluorenyl bromide;NSC 12349",
    "duplicated_cas_no": "",
    "SMILES": "BrC1C=2C(C=3C1=CC=CC3)=CC=CC2",
    "meta_data": {
        "InChI": "InChI=1S/C13H9Br/c14-13-11-7-3-1-5-9(11)10-6-2-4-8-12(10)13/h1-8,13H",
        "InChIKey": null,
        "Canonical SMILES": "BrC1C=2C=CC=CC2C=3C=CC=CC31",
        "Molecular Formula": "C<sub>13</sub>H<sub>9</sub>Br",
        "Molecular Mass": "245.11",
        "Melting Point": "104 °C"
    }
}