{
    "cas_no": "2366-56-5",
    "key_name": "Propanoic acid, 2-fluoro-, methyl ester",
    "cn_name": null,
    "alternate_name": "Propanoic acid, 2-fluoro-, methyl ester;Propionic acid, 2-fluoro-, methyl ester;Methyl 2-fluoropropionate;Methyl 2-fluoropropanoate;2-Fluoropropanoic acid methyl ester",
    "duplicated_cas_no": "94726-03-1",
    "SMILES": "C(C(C)F)(OC)=O",
    "meta_data": {
        "InChI": "InChI=1S/C4H7FO2/c1-3(5)4(6)7-2/h3H,1-2H3",
        "InChIKey": null,
        "Canonical SMILES": "O=C(OC)C(F)C",
        "Molecular Formula": "C<sub>4</sub>H<sub>7</sub>FO<sub>2</sub>",
        "Molecular Mass": "106.10",
        "Boiling Point": "107.0-108.0 °C",
        "Density": "1.0806 g/cm³ @ Temp: 20 °C"
    }
}