{
    "cas_no": "17452-27-6",
    "key_name": "3-Pyridyl isothiocyanate",
    "cn_name": "吡啶-3-异硫氰酸酯;",
    "alternate_name": "Pyridine, 3-isothiocyanato-;Isothiocyanic acid, 3-pyridyl ester;3-Isothiocyanatopyridine;3-Pyridyl isothiocyanate;Pyridin-3-yl isothiocyanate",
    "duplicated_cas_no": "",
    "SMILES": "N(=C=S)C=1C=CC=NC1",
    "meta_data": {
        "InChI": "InChI=1S/C6H4N2S/c9-5-8-6-2-1-3-7-4-6/h1-4H",
        "InChIKey": null,
        "Canonical SMILES": "S=C=NC=1C=NC=CC1",
        "Molecular Formula": "C<sub>6</sub>H<sub>4</sub>N<sub>2</sub>S",
        "Molecular Mass": "136.17",
        "Boiling Point": "231-233 °C",
        "Melting Point": "106.5-108 °C"
    }
}