{
    "cas_no": "40957-99-1",
    "key_name": "(+)-Medioresinol",
    "cn_name": null,
    "alternate_name": "Phenol, 2,6-dimethoxy-4-[(1<em>S</em>,3a<em>R</em>,4<em>S</em>,6a<em>R</em>)-tetrahydro-4-(4-hydroxy-3-methoxyphenyl)-1<em>H</em>,3<em>H</em>-furo[3,4-<em>c</em>]furan-1-yl]-;Phenol, 2,6-dimethoxy-4-[tetrahydro-4-(4-hydroxy-3-methoxyphenyl)-1<em>H</em>,3<em>H</em>-furo[3,4-<em>c</em>]furan-1-yl]-, [1<em>S</em>-(1α,3aα,4α,6aα)]-;1<em>H</em>,3<em>H</em>-Furo[3,4-<em>c</em>]furan, phenol deriv.;2,6-Dimethoxy-4-[(1<em>S</em>,3a<em>R</em>,4<em>S</em>,6a<em>R</em>)-tetrahydro-4-(4-hydroxy-3-methoxyphenyl)-1<em>H</em>,3<em>H</em>-furo[3,4-<em>c</em>]furan-1-yl]phenol;Medioresinol;(+)-Medioresinol;(+)-Mediaresinol",
    "duplicated_cas_no": "",
    "SMILES": "O(C)C=1C=C([C@@H]2[C@@]3([C@@]([C@H](OC3)C4=CC(OC)=C(O)C=C4)(CO2)[H])[H])C=C(OC)C1O",
    "meta_data": {
        "InChI": "InChI=1S/C21H24O7/c1-24-16-6-11(4-5-15(16)22)20-13-9-28-21(14(13)10-27-20)12-7-17(25-2)19(23)18(8-12)26-3/h4-8,13-14,20-23H,9-10H2,1-3H3/t13-,14-,20+,21+/m0/s1",
        "InChIKey": null,
        "Canonical SMILES": "OC1=CC=C(C=C1OC)C2OCC3C(OCC23)C4=CC(OC)=C(O)C(OC)=C4",
        "Molecular Formula": "C<sub>21</sub>H<sub>24</sub>O<sub>7</sub>",
        "Molecular Mass": "388.41",
        "Melting Point": "170-172 °C"
    }
}