{
    "cas_no": "32703-80-3",
    "key_name": "4-<em>tert</em>-Butylphthalonitrile",
    "cn_name": "4-叔丁基邻苯二甲腈;",
    "alternate_name": "1,2-Benzenedicarbonitrile, 4-(1,1-dimethylethyl)-;Phthalonitrile, 4-<em>tert</em>-butyl-;4-(1,1-Dimethylethyl)-1,2-benzenedicarbonitrile;4-<em>tert</em>-Butylphthalonitrile;4-<em>tert</em>-Butylphthalodinitrile;4-<em>tert</em>-Butyl-1,2-dicyanobenzene;1,2-Dicyano-4-<em>tert</em>-butylbenzene;4-<em>tert</em>-Butylbenzene-1,2-dicarbonitrile",
    "duplicated_cas_no": "",
    "SMILES": "C(#N)C1=C(C#N)C=CC(C(C)(C)C)=C1",
    "meta_data": {
        "InChI": "InChI=1S/C12H12N2/c1-12(2,3)11-5-4-9(7-13)10(6-11)8-14/h4-6H,1-3H3",
        "InChIKey": null,
        "Canonical SMILES": "N#CC1=CC=C(C=C1C#N)C(C)(C)C",
        "Molecular Formula": "C<sub>12</sub>H<sub>12</sub>N<sub>2</sub>",
        "Molecular Mass": "184.24",
        "Melting Point": "57-59 °C"
    }
}