{
    "cas_no": "570391-20-7",
    "key_name": "3-Bromo-5-iodophenol",
    "cn_name": null,
    "alternate_name": "Phenol, 3-bromo-5-iodo-;3-Bromo-5-iodophenol",
    "duplicated_cas_no": "",
    "SMILES": "BrC1=CC(I)=CC(O)=C1",
    "meta_data": {
        "InChI": "InChI=1S/C6H4BrIO/c7-4-1-5(8)3-6(9)2-4/h1-3,9H",
        "InChIKey": null,
        "Canonical SMILES": "BrC=1C=C(I)C=C(O)C1",
        "Molecular Formula": "C<sub>6</sub>H<sub>4</sub>BrIO",
        "Molecular Mass": "298.90",
        "Melting Point": "82.5 °C"
    }
}