{
    "cas_no": "92-36-4",
    "key_name": "2-(4-Aminophenyl)-6-methylbenzothiazole",
    "cn_name": "2-(4-氨基苯基)-6-甲基苯并噻唑;",
    "alternate_name": "Benzenamine, 4-(6-methyl-2-benzothiazolyl)-;Benzothiazole, 2-(<em>p</em>-aminophenyl)-6-methyl-;Benzothiazole, 1-(<em>p</em>-aminophenyl)-5-methyl-;4-(6-Methyl-2-benzothiazolyl)benzenamine;2-(4-Aminophenyl)-6-methylbenzothiazole;Dehydrothio-<em>p</em>-toluidine;4-(6-Methyl-2-benzothiazolyl)aniline;2-(<em>p</em>-Aminophenyl)-6-methylbenzothiazole;NSC 15370;NSC 57678;4-(6-Methylbenzo[<em>d</em>]thiazol-2-yl)aniline",
    "duplicated_cas_no": "",
    "SMILES": "NC1=CC=C(C2=NC=3C(S2)=CC(C)=CC3)C=C1",
    "meta_data": {
        "InChI": "InChI=1S/C14H12N2S/c1-9-2-7-12-13(8-9)17-14(16-12)10-3-5-11(15)6-4-10/h2-8H,15H2,1H3",
        "InChIKey": null,
        "Canonical SMILES": "N1=C(SC=2C=C(C=CC12)C)C3=CC=C(N)C=C3",
        "Molecular Formula": "C<sub>14</sub>H<sub>12</sub>N<sub>2</sub>S",
        "Molecular Mass": "240.32",
        "Boiling Point": "434 °C",
        "Melting Point": "194.8 °C"
    }
}