{
    "cas_no": "2420-94-2",
    "key_name": "2-Aminoethyl methacrylate hydrochloride",
    "cn_name": "甲基丙烯酸2-氨基乙基酯盐酸盐;2-氨乙基甲基丙烯酸酯盐酸盐;",
    "alternate_name": "2-Propenoic acid, 2-methyl-, 2-aminoethyl ester, hydrochloride (1:1);Methacrylic acid, 2-aminoethyl ester, hydrochloride;2-Propenoic acid, 2-methyl-, 2-aminoethyl ester, hydrochloride;Ethanol, 2-amino-, methacrylate (ester), hydrochloride;2-Aminoethyl methacrylate hydrochloride;2-Aminoethyl 2-methylacrylate hydrochloride;2-Aminoethyl 2-methylacrylate hydrochloride (1:1)",
    "duplicated_cas_no": "134215-24-0",
    "SMILES": "C(C(C)=C)(OCCN)=O.Cl",
    "meta_data": {
        "InChI": "InChI=1S/C6H11NO2.ClH/c1-5(2)6(8)9-4-3-7;/h1,3-4,7H2,2H3;1H",
        "InChIKey": null,
        "Canonical SMILES": "Cl.O=C(OCCN)C(=C)C",
        "Molecular Formula": "C<sub>6</sub>H<sub>11</sub>NO<sub>2</sub>.ClH",
        "Molecular Mass": "",
        "Melting Point": "113.6-115.2 °C"
    }
}