{
    "cas_no": "20587-30-8",
    "key_name": "Benzoic acid, 5-methyl-2-nitro-, methyl ester",
    "cn_name": null,
    "alternate_name": "Benzoic acid, 5-methyl-2-nitro-, methyl ester;<em>m</em>-Toluic acid, 6-nitro-, methyl ester;Methyl 6-nitro-<em>m</em>-toluate;Methyl 5-methyl-2-nitrobenzoate;5-Methyl-2-nitrobenzoic acid methyl ester",
    "duplicated_cas_no": "",
    "SMILES": "C(OC)(=O)C1=C(N(=O)=O)C=CC(C)=C1",
    "meta_data": {
        "InChI": "InChI=1S/C9H9NO4/c1-6-3-4-8(10(12)13)7(5-6)9(11)14-2/h3-5H,1-2H3",
        "InChIKey": null,
        "Canonical SMILES": "O=C(OC)C1=CC(=CC=C1N(=O)=O)C",
        "Molecular Formula": "C<sub>9</sub>H<sub>9</sub>NO<sub>4</sub>",
        "Molecular Mass": "195.17",
        "Melting Point": "78-79 °C"
    }
}