{
    "cas_no": "923-32-0",
    "key_name": "Cystine",
    "cn_name": null,
    "alternate_name": "Cystine;Cystine, <span class=\"text-smallcaps\">DL</span>-;<span class=\"text-smallcaps\">DL</span>-Cystine;NSC 203781;2-Amino-3-[(2-amino-2-carboxyethyl)disulfanyl]propanoic acid",
    "duplicated_cas_no": "",
    "SMILES": "C(CSSCC(C(O)=O)N)(C(O)=O)N",
    "meta_data": {
        "InChI": "InChI=1S/C6H12N2O4S2/c7-3(5(9)10)1-13-14-2-4(8)6(11)12/h3-4H,1-2,7-8H2,(H,9,10)(H,11,12)",
        "InChIKey": null,
        "Canonical SMILES": "O=C(O)C(N)CSSCC(N)C(=O)O",
        "Molecular Formula": "C<sub>6</sub>H<sub>12</sub>N<sub>2</sub>O<sub>4</sub>S<sub>2</sub>",
        "Molecular Mass": "240.30",
        "Melting Point": "240 °C (decomp)"
    }
}