{
    "cas_no": "13205-49-7",
    "key_name": "4-(Ethylthio)benzoic acid",
    "cn_name": "4-(乙硫基)苯甲酸;",
    "alternate_name": "Benzoic acid, 4-(ethylthio)-;Benzoic acid, <em>p</em>-(ethylthio)-;Benzoic acid, <em>p</em>-(ethylmercapto)-;4-(Ethylthio)benzoic acid;<em>p</em>-(Ethylthio)benzoic acid;NSC 138415;4-(Ethylsulfanyl)benzoic acid",
    "duplicated_cas_no": "",
    "SMILES": "C(O)(=O)C1=CC=C(SCC)C=C1",
    "meta_data": {
        "InChI": "InChI=1S/C9H10O2S/c1-2-12-8-5-3-7(4-6-8)9(10)11/h3-6H,2H2,1H3,(H,10,11)",
        "InChIKey": null,
        "Canonical SMILES": "O=C(O)C1=CC=C(SCC)C=C1",
        "Molecular Formula": "C<sub>9</sub>H<sub>10</sub>O<sub>2</sub>S",
        "Molecular Mass": "182.24",
        "Melting Point": "145 °C"
    }
}