{
    "cas_no": "80-09-1",
    "key_name": "Bisphenol S",
    "cn_name": "双酚S;4,4\"-二羟基二苯砜;",
    "alternate_name": "Phenol, 4,4′-sulfonylbis-;Phenol, 4,4′-sulfonyldi-;4,4′-Sulfonylbis[phenol];4,4′-Sulfonyldiphenol;4,4′-Dihydroxydiphenyl sulfone;Bisphenol S;Bis(4-hydroxyphenyl) sulfone;Bis(<em>p</em>-hydroxyphenyl) sulfone;1,1′-Sulfonylbis[4-hydroxybenzene];<em>p</em>,<em>p</em>′-Dihydroxydiphenyl sulfone;Diphone C;4,4′-Bisphenol S;4-Hydroxyphenyl sulfone;BPS 1;BPS-N;BS 3 (phenol);BPS-P;BS 3;4-(4-Hydroxyphenylsulfonyl)phenol;Diphone A;Diphone D;NSC 683541;NSC 8712;Ex 1B;BS-PN;Dynamar FC 5166;BPS-H;D 8;Bisphenol S sulfonic acid ester;HC-DS;Dynamar FC 5157E;BPS-FF 1",
    "duplicated_cas_no": "98388-00-2;280144-23-2",
    "SMILES": "S(=O)(=O)(C1=CC=C(O)C=C1)C2=CC=C(O)C=C2",
    "meta_data": {
        "InChI": "InChI=1S/C12H10O4S/c13-9-1-5-11(6-2-9)17(15,16)12-7-3-10(14)4-8-12/h1-8,13-14H",
        "InChIKey": null,
        "Canonical SMILES": "O=S(=O)(C1=CC=C(O)C=C1)C2=CC=C(O)C=C2",
        "Molecular Formula": "C<sub>12</sub>H<sub>10</sub>O<sub>4</sub>S",
        "Molecular Mass": "250.27",
        "Melting Point": "240.5 °C"
    }
}