{
    "cas_no": "429-41-4",
    "key_name": "Tetrabutylammonium fluoride",
    "cn_name": "四丁基氟化铵;",
    "alternate_name": "1-Butanaminium, <em>N</em>,<em>N</em>,<em>N</em>-tributyl-, fluoride (1:1);Ammonium, tetrabutyl-, fluoride;1-Butanaminium, <em>N</em>,<em>N</em>,<em>N</em>-tributyl-, fluoride;Tetrabutylammonium fluoride;Tetra-<em>n</em>-butylammonium fluoride;TBAF",
    "duplicated_cas_no": "73476-21-8;1208325-76-1;1884467-20-2",
    "SMILES": "[N+](CCCC)(CCCC)(CCCC)CCCC.[F-]",
    "meta_data": {
        "InChI": "InChI=1S/C16H36N.FH/c1-5-9-13-17(14-10-6-2,15-11-7-3)16-12-8-4;/h5-16H2,1-4H3;1H/q+1;/p-1",
        "InChIKey": null,
        "Canonical SMILES": "[F-].CCCC[N+](CCCC)(CCCC)CCCC",
        "Molecular Formula": "C<sub>16</sub>H<sub>36</sub>N.F",
        "Molecular Mass": "",
        "Melting Point": "24.9 °C"
    }
}