{
    "cas_no": "645-59-0",
    "key_name": "Benzenepropanenitrile",
    "cn_name": "苯代丙腈;",
    "alternate_name": "Benzenepropanenitrile;Hydrocinnamonitrile;β-Phenylpropionitrile;Benzenepropionitrile;3-Phenylpropionitrile;3-Phenylpropanenitrile;2-Phenylethyl cyanide;(2-Cyanoethyl)benzene;1-Cyano-2-phenylethane;Phenethyl cyanide;1-Phenyl-2-cyanoethane;3-Phenylpropanonitrile;Benzylacetonitrile;Dihydrocinnamonitrile;NSC 16936",
    "duplicated_cas_no": "",
    "SMILES": "C(CC#N)C1=CC=CC=C1",
    "meta_data": {
        "InChI": "InChI=1S/C9H9N/c10-8-4-7-9-5-2-1-3-6-9/h1-3,5-6H,4,7H2",
        "InChIKey": null,
        "Canonical SMILES": "N#CCCC=1C=CC=CC1",
        "Molecular Formula": "C<sub>9</sub>H<sub>9</sub>N",
        "Molecular Mass": "131.17",
        "Boiling Point": "261 °C",
        "Melting Point": "-1 °C",
        "Density": "1.0016 g/cm³ @ Temp: 20 °C"
    }
}