{
    "cas_no": "1185282-01-2",
    "key_name": "<em>N</em>-[(1<em>S</em>)-1-(Aminocarbonyl)-2-methylpropyl]-1-[(4-fluorophenyl)methyl]-1<em>H</em>-indazole-3-carboxamide",
    "cn_name": null,
    "alternate_name": "1<em>H</em>-Indazole-3-carboxamide, <em>N</em>-[(1<em>S</em>)-1-(aminocarbonyl)-2-methylpropyl]-1-[(4-fluorophenyl)methyl]-;<em>N</em>-[(1<em>S</em>)-1-(Aminocarbonyl)-2-methylpropyl]-1-[(4-fluorophenyl)methyl]-1<em>H</em>-indazole-3-carboxamide;AB-FUBINACA;(<em>s</em>)-<em>n</em>-(1-Amino-3-methyl-1-oxobutan-2-yl)-1-(4-fluorobenzyl)-1<em>H</em>-indazole-3-carboxamide",
    "duplicated_cas_no": "",
    "SMILES": "C(N[C@@H](C(C)C)C(N)=O)(=O)C=1C=2C(N(CC3=CC=C(F)C=C3)N1)=CC=CC2",
    "meta_data": {
        "InChI": "InChI=1S/C20H21FN4O2/c1-12(2)17(19(22)26)23-20(27)18-15-5-3-4-6-16(15)25(24-18)11-13-7-9-14(21)10-8-13/h3-10,12,17H,11H2,1-2H3,(H2,22,26)(H,23,27)/t17-/m0/s1",
        "InChIKey": null,
        "Canonical SMILES": "O=C(N)C(NC(=O)C1=NN(C=2C=CC=CC12)CC3=CC=C(F)C=C3)C(C)C",
        "Molecular Formula": "C<sub>20</sub>H<sub>21</sub>FN<sub>4</sub>O<sub>2</sub>",
        "Molecular Mass": "368.40",
        "Melting Point": "151-152 °C"
    }
}