{
    "cas_no": "4442-41-5",
    "key_name": "Diphenoxymethane",
    "cn_name": null,
    "alternate_name": "Benzene, 1,1′-[methylenebis(oxy)]bis-;Methane, diphenoxy-;1,1′-[Methylenebis(oxy)]bis[benzene];Carbon monoxide diphenyl acetal;Carbonous acid diphenyl ester;Phenyl carbonite;Phenoxymethyl phenyl ether;Diphenoxymethane",
    "duplicated_cas_no": "",
    "SMILES": "O(COC1=CC=CC=C1)C2=CC=CC=C2",
    "meta_data": {
        "InChI": "InChI=1S/C13H12O2/c1-3-7-12(8-4-1)14-11-15-13-9-5-2-6-10-13/h1-10H,11H2",
        "InChIKey": null,
        "Canonical SMILES": "O(C=1C=CC=CC1)COC=2C=CC=CC2",
        "Molecular Formula": "C<sub>13</sub>H<sub>12</sub>O<sub>2</sub>",
        "Molecular Mass": "200.23",
        "Boiling Point": "164-165 °C @ Press: 13 Torr",
        "Melting Point": "35-36 °C"
    }
}