{
    "cas_no": "7440-66-6",
    "key_name": "Zinc",
    "cn_name": "锌;锌,无砷;锌,粒状;锌粉;蓝粉;超细锌粉;超细高活性锌粉;电解锌;纳米锌;锌阳极;锌,片状;锌锭/扣;",
    "alternate_name": "Zinc;Blue powder;LS 2;LS 4;LS 5;Ecka 4;F 2000;F 2000 (metal);LS 2 (element);F 1000;F 1000 (metal);VM 4P16;UF;UF (metal);NC-Zinc;F 1500T;LS 5 (metal);Asarco L 15;AN 325;Zinc Dust 3;MCS;MCS (metal);Tc 8 (metal);Tc 8;LS 30;Z 620;MS 10 (metal);MS 10;PTzR 4;Stapa TE Zinc AT;SK 2 (metal);SK 2;3-13L;RZN11-1;Zincsalt GTT;LS 10;LS 10 (metal);Zinc Flakes GTT;GTT;GTT (metal);C.I. Pigment Black 16;004F2/68;AN 200;MSC;Zinc Dust MCS;Zinc Dust LS 2;PTs 1;Zinc Dust 500 mesh;Zn-S-D 8;KFZn 325;KFZn 400;KFZn 500;KFZn 625;KFZn 800;KFZn 1000;KFZn 1200;KFZn 1500;Teprosyn F 2498;Zinc Dust 17640;ZG 777;HZH;Standart Zink Flake AT;Ipaligo zinc;PTs 2;F 500;F 500 (metal);Bioplex Zinco;Zinc (powder);PTsV;Sun Ti-Zn;Amiplus Zn;Standard Zincflake GTT;4P32;PTs 4;PTs 4 (element);Umicore 4P32;Larvik Superfine 25;Amino-Zn;ZNE 01PB;Zintane 83;Zinc Dust Superfine 620;Zinc Dust 550;Zinc Dust EF;OTMax Zinc;Standart Zinc Flake GTT;Standart Zinc Flake G;Standart Zinc Flake AT;Zinc Metal Pigment 97170;ZMP 4P645;Hempel 97170;ZN 3N;ZN 4N;ZN 4Al;F 500N;ZincFlake GTT;FH 800;FH 800 (metal);SMP 5;ZMP 4P16;TP 200 (polishing aid);TP 200;UP 6 (dust);Stapa Zn 8;FZn 050;CB-Zn 01;STM 003;MH-Zn;Superfinde 620;WLZn 800;SZ 600;XD 600;Tafa 02Z;4P/16;Zinc Powder 4P16;SE 1132;F 300;DXN-SL 30;F 300 (metal);XH-S 13;XH-Y 13;Ts 0;Jinhao F 100;F 100;SHG;Zinc alloy, base, (SHGZn);SHG zinc;SHGZn;Zinc alloy, base, (SHG zinc);PFC 4016;HKJ 103-1;PCF 4005;JB 009;Zinc Flake MA-ZA-F;HX 600-II;FH 325;ZC 325;ZC 800;ZC 1000;CW-Zn 002;CW-Zn 001;FH 500;MeSH ID: D015032;MF-ZF;Z 2031;Rototec 29230;NG-F 500",
    "duplicated_cas_no": "12793-53-2;91741-63-8;118102-83-3;195161-85-4;199281-21-5;298688-49-0;1865801-44-0;2443494-44-6",
    "SMILES": "[Zn]",
    "meta_data": {
        "InChI": "InChI=1S/Zn",
        "InChIKey": null,
        "Canonical SMILES": "[Zn]",
        "Molecular Formula": "Zn",
        "Molecular Mass": "",
        "Boiling Point": "907 °C",
        "Melting Point": "419.5 °C",
        "Density": "7.14 g/cm³"
    }
}