{
    "cas_no": "939-48-0",
    "key_name": "Isopropyl benzoate",
    "cn_name": "苯甲酸异丙酯;",
    "alternate_name": "Benzoic acid, 1-methylethyl ester;Benzoic acid, isopropyl ester;Isopropyl benzoate;Benzoic acid <em>iso</em>-propyl ester;1-Methylethyl benzoate",
    "duplicated_cas_no": "",
    "SMILES": "C(OC(C)C)(=O)C1=CC=CC=C1",
    "meta_data": {
        "InChI": "InChI=1S/C10H12O2/c1-8(2)12-10(11)9-6-4-3-5-7-9/h3-8H,1-2H3",
        "InChIKey": null,
        "Canonical SMILES": "O=C(OC(C)C)C=1C=CC=CC1",
        "Molecular Formula": "C<sub>10</sub>H<sub>12</sub>O<sub>2</sub>",
        "Molecular Mass": "164.20",
        "Boiling Point": "216 °C"
    }
}