{
    "cas_no": "745-65-3",
    "key_name": "Prostaglandin E<sub>1</sub>",
    "cn_name": "列腺素E1;前列地尔;(1R,2R,3R)-3-羟基-2-[(E)-(3S)-3-羟基-1-辛烯基]-5-氧代环戊烷庚酸;",
    "alternate_name": "Prost-13-en-1-oic acid, 11,15-dihydroxy-9-oxo-, (11α,13<em>E</em>,15<em>S</em>)-;Cyclopentaneheptanoic acid, 3-hydroxy-2-(3-hydroxy-1-octenyl)-5-oxo-, (-)-;Cyclopentaneheptanoic acid, 3α-hydroxy-2-(3-hydroxy-1-octenyl)-5-oxo-;(11α,13<em>E</em>,15<em>S</em>)-11,15-Dihydroxy-9-oxoprost-13-en-1-oic acid;PGE<sub>1</sub>;Prostaglandin E<sub>1</sub>;11α,15(<em>S</em>)-Dihydroxy-9-oxo-13-<em>trans</em>-prostenoic acid;(-)-Prostaglandin E<sub>1</sub>;<em>l</em>-Prostaglandin E<sub>1</sub>;11α,15α-Dihydroxy-9-oxo-13-<em>trans</em>-prostenoic acid;Alprostadil;U 10136;Prostandin;<em>l</em>-PGE<sub>1</sub>;Prostandin 500;Caverject;Alprox TD;Palux;ONO 1608;Lipoprost;Topiglan;SEPA-PGE1;SEPA-alprostadil;SEPA-prostaglandin E1;Minprog;Prostivas;Prostin VR Pediatric;Liple;NSC 165559;Caveject;Vasaprostan;Liprostin;Eglandin;Lipo PGE1;Alprostan;Edex",
    "duplicated_cas_no": "50-83-9;22299-37-2;50865-30-0",
    "SMILES": "C(CCCCCC(O)=O)[C@@H]1[C@@H](/C=C/[C@H](CCCCC)O)[C@H](O)CC1=O",
    "meta_data": {
        "InChI": "InChI=1S/C20H34O5/c1-2-3-6-9-15(21)12-13-17-16(18(22)14-19(17)23)10-7-4-5-8-11-20(24)25/h12-13,15-17,19,21,23H,2-11,14H2,1H3,(H,24,25)/b13-12+/t15-,16+,17+,19+/m0/s1",
        "InChIKey": null,
        "Canonical SMILES": "O=C(O)CCCCCCC1C(=O)CC(O)C1C=CC(O)CCCCC",
        "Molecular Formula": "C<sub>20</sub>H<sub>34</sub>O<sub>5</sub>",
        "Molecular Mass": "354.48",
        "Melting Point": "115-116 °C"
    }
}