{
    "cas_no": "18362-51-1",
    "key_name": "1,3-Bis(4-methoxyphenyl)-1,3-propanedione",
    "cn_name": "1,3-双(4-甲氧基苯)-1,3-丙二酮;",
    "alternate_name": "1,3-Propanedione, 1,3-bis(4-methoxyphenyl)-;1,3-Propanedione, 1,3-bis(<em>p</em>-methoxyphenyl)-;1,3-Bis(4-methoxyphenyl)-1,3-propanedione;1,3-Bis(<em>p</em>-methoxyphenyl)-1,3-propanedione;(4,4′-Dimethoxydibenzoyl)methane;Di(<em>p</em>-methoxybenzoyl)methane;Bis(<em>p</em>-methoxybenzoyl)methane;<em>p</em>,<em>p</em>′-Dimethoxydibenzoylmethane;NSC 99046;1,3-Di(4-methoxyphenyl)-1,3-propanedione;1,3-Bis(4-methoxyphenyl)-1,3-propandione;1,3-Bis(4-dimethoxyphenyl)propane-1,3-dione;Avo D",
    "duplicated_cas_no": "",
    "SMILES": "C(CC(=O)C1=CC=C(OC)C=C1)(=O)C2=CC=C(OC)C=C2",
    "meta_data": {
        "InChI": "InChI=1S/C17H16O4/c1-20-14-7-3-12(4-8-14)16(18)11-17(19)13-5-9-15(21-2)10-6-13/h3-10H,11H2,1-2H3",
        "InChIKey": null,
        "Canonical SMILES": "O=C(C1=CC=C(OC)C=C1)CC(=O)C2=CC=C(OC)C=C2",
        "Molecular Formula": "C<sub>17</sub>H<sub>16</sub>O<sub>4</sub>",
        "Molecular Mass": "284.31",
        "Melting Point": "114 °C"
    }
}