{
    "cas_no": "393-36-2",
    "key_name": "4-Bromo-3-(trifluoromethyl)aniline",
    "cn_name": "5-氨基-2-溴三氟甲苯;3-三氟甲基-4-溴苯胺;",
    "alternate_name": "Benzenamine, 4-bromo-3-(trifluoromethyl)-;<em>m</em>-Toluidine, 4-bromo-α,α,α-trifluoro-;4-Bromo-3-(trifluoromethyl)benzenamine;4-Bromo-3-(trifluoromethyl)aniline;4-Bromo-α,α,α-trifluoro-<em>m</em>-toluidine;5-Amino-2-bromobenzotrifluoride;3-Amino-6-bromobenzotrifluoride;NSC 88332;4-Bromo-3-(trifluoromethyl)phenylamine;3-Trifluoromethyl-4-bromoaniline;4-Bromo-3-trifluoromethylbenzeneamine",
    "duplicated_cas_no": "343333-85-7;155255-44-0",
    "SMILES": "C(F)(F)(F)C1=C(Br)C=CC(N)=C1",
    "meta_data": {
        "InChI": "InChI=1S/C7H5BrF3N/c8-6-2-1-4(12)3-5(6)7(9,10)11/h1-3H,12H2",
        "InChIKey": null,
        "Canonical SMILES": "FC(F)(F)C1=CC(N)=CC=C1Br",
        "Molecular Formula": "C<sub>7</sub>H<sub>5</sub>BrF<sub>3</sub>N",
        "Molecular Mass": "240.02",
        "Boiling Point": "104-108 °C @ Press: 5 Torr",
        "Melting Point": "55-56 °C"
    }
}