{
    "cas_no": "130525-58-5",
    "key_name": "<span class=\"text-smallcaps\">D</smallcap>-<em>glycero</em>-<smallcap>D</span>-<em>galacto</em>-Non-2-enonic acid, 5-(acetylamino)-2,6-anhydro-4-azido-3,4,5-trideoxy-, methyl ester, 7,8,9-triacetate",
    "cn_name": null,
    "alternate_name": "<span class=\"text-smallcaps\">D</smallcap>-<em>glycero</em>-<smallcap>D</span>-<em>galacto</em>-Non-2-enonic acid, 5-(acetylamino)-2,6-anhydro-4-azido-3,4,5-trideoxy-, methyl ester, 7,8,9-triacetate",
    "duplicated_cas_no": "171241-92-2;235774-25-1",
    "SMILES": "[C@H]([C@@H](COC(C)=O)OC(C)=O)(OC(C)=O)[C@]1([C@H](NC(C)=O)[C@@H](N=[N+]=[N-])C=C(C(OC)=O)O1)[H]",
    "meta_data": {
        "InChI": "InChI=1S/C18H24N4O10/c1-8(23)20-15-12(21-22-19)6-13(18(27)28-5)32-17(15)16(31-11(4)26)14(30-10(3)25)7-29-9(2)24/h6,12,14-17H,7H2,1-5H3,(H,20,23)/t12-,14+,15+,16+,17+/m0/s1",
        "InChIKey": null,
        "Canonical SMILES": "[N-]=[N+]=NC1C=C(OC(C(OC(=O)C)C(OC(=O)C)COC(=O)C)C1NC(=O)C)C(=O)OC",
        "Molecular Formula": "C<sub>18</sub>H<sub>24</sub>N<sub>4</sub>O<sub>10</sub>",
        "Molecular Mass": "",
        "Melting Point": "91-92 °C"
    }
}