{
    "cas_no": "611-19-8",
    "key_name": "2-Chlorobenzyl chloride",
    "cn_name": "邻氯氯苄;",
    "alternate_name": "Benzene, 1-chloro-2-(chloromethyl)-;Toluene, <em>o</em>,α-dichloro-;Toluene, α,2-dichloro-;1-Chloro-2-(chloromethyl)benzene;<em>o</em>-Chlorobenzyl chloride;α,<em>o</em>-Dichlorotoluene;2-Chlorobenzyl chloride;<em>o</em>,α-Dichlorotoluene;α,2-Dichlorotoluene;NSC 8446",
    "duplicated_cas_no": "40380-15-2",
    "SMILES": "C(Cl)C1=C(Cl)C=CC=C1",
    "meta_data": {
        "InChI": "InChI=1S/C7H6Cl2/c8-5-6-3-1-2-4-7(6)9/h1-4H,5H2",
        "InChIKey": null,
        "Canonical SMILES": "ClC=1C=CC=CC1CCl",
        "Molecular Formula": "C<sub>7</sub>H<sub>6</sub>Cl<sub>2</sub>",
        "Molecular Mass": "161.03",
        "Boiling Point": "217 °C",
        "Melting Point": "-17 °C",
        "Density": "1.078 g/cm³ @ Temp: 18 °C"
    }
}