{
    "cas_no": "552-62-5",
    "key_name": "7-Methylxanthine",
    "cn_name": "7-甲基黄嘌呤;",
    "alternate_name": "1<em>H</em>-Purine-2,6-dione, 3,7-dihydro-7-methyl-;Heteroxanthine;3,7-Dihydro-7-methyl-1<em>H</em>-purine-2,6-dione;7-Methylxanthine;NSC 7861",
    "duplicated_cas_no": "",
    "SMILES": "O=C1C2=C(NC(=O)N1)N=CN2C",
    "meta_data": {
        "InChI": "InChI=1S/C6H6N4O2/c1-10-2-7-4-3(10)5(11)9-6(12)8-4/h2H,1H3,(H2,8,9,11,12)",
        "InChIKey": null,
        "Canonical SMILES": "O=C1NC(=O)C2=C(N=CN2C)N1",
        "Molecular Formula": "C<sub>6</sub>H<sub>6</sub>N<sub>4</sub>O<sub>2</sub>",
        "Molecular Mass": "166.14",
        "Melting Point": "&gt;300 °C"
    }
}