{
    "cas_no": "56839-43-1",
    "key_name": "Eperisone hydrochloride",
    "cn_name": "盐酸乙哌立松;4\"-乙基-2-甲基-3-哌啶基苯丙酮盐酸盐;",
    "alternate_name": "1-Propanone, 1-(4-ethylphenyl)-2-methyl-3-(1-piperidinyl)-, hydrochloride (1:1);1-Propanone, 1-(4-ethylphenyl)-2-methyl-3-(1-piperidinyl)-, hydrochloride;Myonal;E 0646;4′-Ethyl-2-methyl-3-piperidinopropiophenone hydrochloride;Eperisone hydrochloride;EMPP;Mional;(±)-Eperisone hydrochloride;Skelact;Rapisone;Myosone plus",
    "duplicated_cas_no": "",
    "SMILES": "C(C(CN1CCCCC1)C)(=O)C2=CC=C(CC)C=C2.Cl",
    "meta_data": {
        "InChI": "InChI=1S/C17H25NO.ClH/c1-3-15-7-9-16(10-8-15)17(19)14(2)13-18-11-5-4-6-12-18;/h7-10,14H,3-6,11-13H2,1-2H3;1H",
        "InChIKey": null,
        "Canonical SMILES": "Cl.O=C(C1=CC=C(C=C1)CC)C(C)CN2CCCCC2",
        "Molecular Formula": "C<sub>17</sub>H<sub>25</sub>NO.ClH",
        "Molecular Mass": "",
        "Melting Point": "170-172 °C"
    }
}