{
    "cas_no": "63816-18-2",
    "key_name": "6-Chloro-2-methylbenzoxazole",
    "cn_name": null,
    "alternate_name": "Benzoxazole, 6-chloro-2-methyl-;6-Chloro-2-methylbenzoxazole",
    "duplicated_cas_no": "",
    "SMILES": "CC1=NC=2C(O1)=CC(Cl)=CC2",
    "meta_data": {
        "InChI": "InChI=1S/C8H6ClNO/c1-5-10-7-3-2-6(9)4-8(7)11-5/h2-4H,1H3",
        "InChIKey": null,
        "Canonical SMILES": "ClC=1C=CC=2N=C(OC2C1)C",
        "Molecular Formula": "C<sub>8</sub>H<sub>6</sub>ClNO",
        "Molecular Mass": "167.59",
        "Melting Point": "42-43 °C"
    }
}