{
    "cas_no": "71989-23-6",
    "key_name": "<em>N</em>-Fmoc-<span class=\"text-smallcaps\">L</span>-isoleucine",
    "cn_name": "Fmoc-L-异亮氨酸;芴甲氧羰基-L-异亮氨酸;",
    "alternate_name": "<span class=\"text-smallcaps\">L</span>-Isoleucine, <em>N</em>-[(9<em>H</em>-fluoren-9-ylmethoxy)carbonyl]-;<em>N</em>-[(9<em>H</em>-Fluoren-9-ylmethoxy)carbonyl]-<span class=\"text-smallcaps\">L</span>-isoleucine;<em>N</em>-(9-Fluorenylmethoxycarbonyl)isoleucine;<em>N</em>-(9-Fluorenylmethoxycarbonyl)-<span class=\"text-smallcaps\">L</span>-isoleucine;(2<em>S</em>,3<em>S</em>)-2-(((9-Fluorenylmethoxy)carbonyl)amino)-3-methylpentanoic acid;NSC 334289;<em>N</em>-Fmoc-<span class=\"text-smallcaps\">L</span>-isoleucine",
    "duplicated_cas_no": "335130-62-6;846567-78-0;216149-67-6;266359-39-1;912955-16-9;1067893-41-7;1162018-60-1",
    "SMILES": "C(OC(N[C@@H]([C@H](CC)C)C(O)=O)=O)C1C=2C(C=3C1=CC=CC3)=CC=CC2",
    "meta_data": {
        "InChI": "InChI=1S/C21H23NO4/c1-3-13(2)19(20(23)24)22-21(25)26-12-18-16-10-6-4-8-14(16)15-9-5-7-11-17(15)18/h4-11,13,18-19H,3,12H2,1-2H3,(H,22,25)(H,23,24)/t13-,19-/m0/s1",
        "InChIKey": null,
        "Canonical SMILES": "O=C(OCC1C=2C=CC=CC2C=3C=CC=CC31)NC(C(=O)O)C(C)CC",
        "Molecular Formula": "C<sub>21</sub>H<sub>23</sub>NO<sub>4</sub>",
        "Molecular Mass": "353.41",
        "Melting Point": "138-140 °C (decomp)"
    }
}