{
    "cas_no": "3768-55-6",
    "key_name": "1,1,1-Trimethyl-<em>N</em>-phenylsilanamine",
    "cn_name": "1,1,1-三甲基-N-苯基哌啶;",
    "alternate_name": "Silanamine, 1,1,1-trimethyl-<em>N</em>-phenyl-;Silylamine, 1,1,1-trimethyl-<em>N</em>-phenyl-;1,1,1-Trimethyl-<em>N</em>-phenylsilanamine;<em>N</em>-(Trimethylsilyl)aniline;Phenyl(trimethylsilyl)amine;Anilinotrimethylsilane;<em>N</em>-Phenyltrimethylsilylamine;<em>N</em>-(Trimethylsilyl)benzenamine;Trimethyl(phenylamino)silane",
    "duplicated_cas_no": "",
    "SMILES": "N([Si](C)(C)C)C1=CC=CC=C1",
    "meta_data": {
        "InChI": "InChI=1S/C9H15NSi/c1-11(2,3)10-9-7-5-4-6-8-9/h4-8,10H,1-3H3",
        "InChIKey": null,
        "Canonical SMILES": "C=1C=CC(=CC1)N[Si](C)(C)C",
        "Molecular Formula": "C<sub>9</sub>H<sub>15</sub>NSi",
        "Molecular Mass": "165.31",
        "Boiling Point": "98-99 °C @ Press: 19 Torr",
        "Density": "0.940 g/cm³"
    }
}