{
    "cas_no": "624-95-3",
    "key_name": "3,3-Dimethyl-1-butanol",
    "cn_name": "3,3-二甲基-1-丁醇;3,3-二甲基丁醇;",
    "alternate_name": "1-Butanol, 3,3-dimethyl-;3,3-Dimethyl-1-butanol;3,3-Dimethylbutanol;Dimbunol;NSC 54158",
    "duplicated_cas_no": "",
    "SMILES": "C(C(C)(C)C)CO",
    "meta_data": {
        "InChI": "InChI=1S/C6H14O/c1-6(2,3)4-5-7/h7H,4-5H2,1-3H3",
        "InChIKey": null,
        "Canonical SMILES": "OCCC(C)(C)C",
        "Molecular Formula": "C<sub>6</sub>H<sub>14</sub>O",
        "Molecular Mass": "102.17",
        "Boiling Point": "143 °C",
        "Melting Point": "-60 °C",
        "Density": "0.844 g/cm³ @ Temp: 15 °C"
    }
}