{
    "cas_no": "488-76-6",
    "key_name": "(-)-<em>vibo</em>-Quercitol",
    "cn_name": null,
    "alternate_name": "<span class=\"text-smallcaps\">L</span>-<em>chiro</em>-Inositol, 1-deoxy-;Inositol, 1-deoxy-, <span class=\"text-smallcaps\">L</span>-<em>chiro</em>-;Viburnitol;1-Deoxy-<span class=\"text-smallcaps\">L</span>-<em>chiro</em>-inositol;Quercitol, (-)-<em>vibo</em>-;Viburnitol, (-)-;<span class=\"text-smallcaps\">L</span>-Viburnitol;(-)-Viburnitol;(-)-Viboquercitol;(-)-<em>vibo</em>-Quercitol",
    "duplicated_cas_no": "7586-52-9;7600-54-6;54514-95-3;81369-58-6",
    "SMILES": "O[C@@H]1[C@@H](O)[C@H](O)[C@H](O)C[C@H]1O",
    "meta_data": {
        "InChI": "InChI=1S/C6H12O5/c7-2-1-3(8)5(10)6(11)4(2)9/h2-11H,1H2/t2-,3-,4-,5+,6+/m1/s1",
        "InChIKey": null,
        "Canonical SMILES": "OC1CC(O)C(O)C(O)C1O",
        "Molecular Formula": "C<sub>6</sub>H<sub>12</sub>O<sub>5</sub>",
        "Molecular Mass": "164.16",
        "Melting Point": "180-181 °C"
    }
}