{
    "cas_no": "141776-32-1",
    "key_name": "Sulfosulfuron",
    "cn_name": "磺酰磺隆;N-[[(4,6-二甲氧基-2-嘧啶基)氨基]甲酰]-2-(乙基磺酰)咪唑并[1,2-a]吡啶-3-磺酰胺;",
    "alternate_name": "Imidazo[1,2-<em>a</em>]pyridine-3-sulfonamide, <em>N</em>-[[(4,6-dimethoxy-2-pyrimidinyl)amino]carbonyl]-2-(ethylsulfonyl)-;<em>N</em>-[[(4,6-Dimethoxy-2-pyrimidinyl)amino]carbonyl]-2-(ethylsulfonyl)imidazo[1,2-<em>a</em>]pyridine-3-sulfonamide;MON 37500;Sulfosulfuron;MON 37532;Monitor;Monitor (herbicide);Apyros;Apyros 75WG;MON 37560;Monza;<em>N</em>-(2-Ethylsulfonylimidazo[1,2-<em>a</em>]pyridin-3-ylsulfonyl)-<em>N</em>′-(4,6-dimethoxy-2-pyrimidinyl)urea;Maverick;Apirus",
    "duplicated_cas_no": "172891-51-9;198497-03-9",
    "SMILES": "S(NC(NC=1N=C(OC)C=C(OC)N1)=O)(=O)(=O)C=2N3C(=NC2S(CC)(=O)=O)C=CC=C3",
    "meta_data": {
        "InChI": "InChI=1S/C16H18N6O7S2/c1-4-30(24,25)13-14(22-8-6-5-7-10(22)17-13)31(26,27)21-16(23)20-15-18-11(28-2)9-12(19-15)29-3/h5-9H,4H2,1-3H3,(H2,18,19,20,21,23)",
        "InChIKey": null,
        "Canonical SMILES": "O=C(NC=1N=C(OC)C=C(N1)OC)NS(=O)(=O)C2=C(N=C3C=CC=CN32)S(=O)(=O)CC",
        "Molecular Formula": "C<sub>16</sub>H<sub>18</sub>N<sub>6</sub>O<sub>7</sub>S<sub>2</sub>",
        "Molecular Mass": "470.48",
        "Melting Point": "201.4 °C"
    }
}