{
    "cas_no": "396-01-0",
    "key_name": "Triamterene",
    "cn_name": "三氨喋啶;氨苯蝶啶;2,4,7-三氨基-6-苯基蝶啶;",
    "alternate_name": "2,4,7-Pteridinetriamine, 6-phenyl-;Pteridine, 2,4,7-triamino-6-phenyl-;6-Phenyl-2,4,7-pteridinetriamine;SKF 8542;Ademine;Ditak;Dyrenium;2,4,7-Triamino-6-phenylpteridine;Triamterene;Triamteril complex;Dytac;6-Phenyl-2,4,7-triaminopteridine;Triamteren;Jatropur;Tri-Span;Diren;Noridil;Pterofen;Teriam;Triamteril;Pterophene;Taturil;Diurene;Teridin;Dyren;Triteren;Triampur;Urocaudal;Ademin;NSC 77625;MeSH ID: D014223",
    "duplicated_cas_no": "8057-28-1",
    "SMILES": "NC=1C2=C(N=C(N)C(=N2)C3=CC=CC=C3)N=C(N)N1",
    "meta_data": {
        "InChI": "InChI=1S/C12H11N7/c13-9-7(6-4-2-1-3-5-6)16-8-10(14)18-12(15)19-11(8)17-9/h1-5H,(H6,13,14,15,17,18,19)",
        "InChIKey": null,
        "Canonical SMILES": "N1=C(N=C(N)C2=NC(=C(N=C12)N)C3=CC=CC=C3)N",
        "Molecular Formula": "C<sub>12</sub>H<sub>11</sub>N<sub>7</sub>",
        "Molecular Mass": "253.26",
        "Melting Point": "316 °C"
    }
}