{
    "cas_no": "467-81-2",
    "key_name": "(22β)-22-[[(2<em>Z</em>)-2-Methyl-1-oxo-2-buten-1-yl]oxy]-3-oxoolean-12-en-28-oic acid",
    "cn_name": null,
    "alternate_name": "Olean-12-en-28-oic acid, 22-[[(2<em>Z</em>)-2-methyl-1-oxo-2-buten-1-yl]oxy]-3-oxo-, (22β)-;Olean-12-en-28-oic acid, 22β-hydroxy-3-oxo-, 2-methylcrotonate, (<em>Z</em>)-;Olean-12-en-28-oic acid, 22-[(2-methyl-1-oxo-2-butenyl)oxy]-3-oxo-, [22β(<em>Z</em>)]-;Rehmannic acid;Olean-12-en-28-oic acid, 22-[[(2<em>Z</em>)-2-methyl-1-oxo-2-butenyl]oxy]-3-oxo-, (22β)-;(22β)-22-[[(2<em>Z</em>)-2-Methyl-1-oxo-2-buten-1-yl]oxy]-3-oxoolean-12-en-28-oic acid;Lantadene A",
    "duplicated_cas_no": "",
    "SMILES": "C(O)(=O)[C@]12[C@](C=3[C@@](C)(CC1)[C@@]4(C)[C@](CC3)([C@]5(C)[C@@](CC4)(C(C)(C)C(=O)CC5)[H])[H])(CC(C)(C)C[C@H]2OC(/C(=C\\C)/C)=O)[H]",
    "meta_data": {
        "InChI": "InChI=1S/C35H52O5/c1-10-21(2)28(37)40-27-20-30(3,4)19-23-22-11-12-25-32(7)15-14-26(36)31(5,6)24(32)13-16-34(25,9)33(22,8)17-18-35(23,27)29(38)39/h10-11,23-25,27H,12-20H2,1-9H3,(H,38,39)/b21-10-/t23-,24-,25+,27+,32-,33+,34+,35-/m0/s1",
        "InChIKey": null,
        "Canonical SMILES": "O=C(OC1CC(C)(C)CC2C3=CCC4C5(C)CCC(=O)C(C)(C)C5CCC4(C)C3(C)CCC12C(=O)O)C(=CC)C",
        "Molecular Formula": "C<sub>35</sub>H<sub>52</sub>O<sub>5</sub>",
        "Molecular Mass": "552.78",
        "Melting Point": "284-286 °C"
    }
}