{
    "cas_no": "147-85-3",
    "key_name": "<span class=\"text-smallcaps\">L</span>-Proline",
    "cn_name": "L-脯氨酸;",
    "alternate_name": "<span class=\"text-smallcaps\">L</span>-Proline;Proline, <span class=\"text-smallcaps\">L</span>-;Proline;<span class=\"text-smallcaps\">L</span>-(-)-Proline;2-Pyrrolidinecarboxylic acid, (<em>S</em>)-;(<em>S</em>)-(-)-Proline;2-Pyrrolidinecarboxylic acid;(-)-Proline;(<em>S</em>)-Proline;(<em>S</em>)-2-Pyrrolidinecarboxylic acid;(-)-2-Pyrrolidinecarboxylic acid;<span class=\"text-smallcaps\">L</span>-Pyrrolidine-2-carboxylic acid;<span class=\"text-smallcaps\">L</span>-α-Pyrrolidinecarboxylic acid;Carboxypyrrolidine;NSC 46703;(<em>S</em>)-2-Carboxypyrrolidine;(2<em>S</em>)-Pyrrolidine-2-carboxylic acid;21: PN: WO2021055880 SEQID: 22 claimed protein;125: PN: WO2022170619 SEQID: 478 claimed protein;129: PN: WO2022171192 SEQID: 478 claimed protein;MeSH ID: D011392",
    "duplicated_cas_no": "7005-20-1;95650-41-2;1150316-19-0",
    "SMILES": "C(O)(=O)[C@@H]1CCCN1",
    "meta_data": {
        "InChI": "InChI=1S/C5H9NO2/c7-5(8)4-2-1-3-6-4/h4,6H,1-3H2,(H,7,8)/t4-/m0/s1",
        "InChIKey": null,
        "Canonical SMILES": "O=C(O)C1NCCC1",
        "Molecular Formula": "C<sub>5</sub>H<sub>9</sub>NO<sub>2</sub>",
        "Molecular Mass": "115.13",
        "Melting Point": "220-222 °C (decomp)",
        "Density": "1.4063 g/cm³ @ Temp: 45.00 °C"
    }
}