{
    "cas_no": "1672-88-4",
    "key_name": "Furagin",
    "cn_name": "呋喃烯啶;1-((3-(5-硝基-2-呋喃基)烯丙亚基)氨基)海因;",
    "alternate_name": "2,4-Imidazolidinedione, 1-[[3-(5-nitro-2-furanyl)-2-propen-1-ylidene]amino]-;Hydantoin, 1-[[3-(5-nitro-2-furyl)allylidene]amino]-;2,4-Imidazolidinedione, 1-[[3-(5-nitro-2-furanyl)-2-propenylidene]amino]-;1-[[3-(5-Nitro-2-furanyl)-2-propen-1-ylidene]amino]-2,4-imidazolidinedione;Furagin;NF 416;<em>N</em>-[β-(5-Nitro-2-furyl)allylidene]-1-aminohydantoin;1-[3-(5-Nitro-2-furyl)allylideneamino]hydantoin;Furazidine;Furazidin;1-[3-(5-Nitro-2-furyl)allylidenamino]hydantoin;F 35;Akritoin;Furamags",
    "duplicated_cas_no": "51728-01-9",
    "SMILES": "N(=CC=CC=1OC(N(=O)=O)=CC1)N2CC(=O)NC2=O",
    "meta_data": {
        "InChI": "InChI=1S/C10H8N4O5/c15-8-6-13(10(16)12-8)11-5-1-2-7-3-4-9(19-7)14(17)18/h1-5H,6H2,(H,12,15,16)",
        "InChIKey": null,
        "Canonical SMILES": "O=C1NC(=O)CN1N=CC=CC=2OC(=CC2)N(=O)=O",
        "Molecular Formula": "C<sub>10</sub>H<sub>8</sub>N<sub>4</sub>O<sub>5</sub>",
        "Molecular Mass": "264.19",
        "Melting Point": "263 °C (decomp)"
    }
}