{
    "cas_no": "83-56-7",
    "key_name": "1,5-Dihydroxynaphthalene",
    "cn_name": "1,5-二羟基萘;",
    "alternate_name": "1,5-Naphthalenediol;C.I. 76625;Durafur Developer E;Oxidation Base;1,5-Dihydroxynaphthalene;NSC 7202;1,5-Dihydroxynaphthaline;1,5-Naphthohydroquinone;D 0590",
    "duplicated_cas_no": "1013361-23-3",
    "SMILES": "OC=1C2=C(C(O)=CC=C2)C=CC1",
    "meta_data": {
        "InChI": "InChI=1S/C10H8O2/c11-9-5-1-3-7-8(9)4-2-6-10(7)12/h1-6,11-12H",
        "InChIKey": null,
        "Canonical SMILES": "OC1=CC=CC=2C(O)=CC=CC12",
        "Molecular Formula": "C<sub>10</sub>H<sub>8</sub>O<sub>2</sub>",
        "Molecular Mass": "160.17",
        "Melting Point": "262 °C (decomp)"
    }
}