{
    "cas_no": "1918-16-7",
    "key_name": "Propachlor",
    "cn_name": "毒草安;N-异丙基-2-氯乙酰苯胺;",
    "alternate_name": "Acetamide, 2-chloro-<em>N</em>-(1-methylethyl)-<em>N</em>-phenyl-;Acetanilide, 2-chloro-<em>N</em>-isopropyl-;2-Chloro-<em>N</em>-(1-methylethyl)-<em>N</em>-phenylacetamide;CP 31393;2-Chloro-<em>N</em>-isopropylacetanilide;<em>N</em>-Isopropyl-α-chloroacetanilide;Ramrod 65;Propachlore;Propachlor;Ramrod;α-Chloro-<em>N</em>-isopropylacetanilide;<em>N</em>-Isopropyl-2-chloroacetanilide;Satecid;2-Chloro-<em>N</em>-isopropyl-<em>N</em>-phenylacetamide;Niticid;Bexton 4L;Bexton;Kartex A;Acilid;Muharicid;Albrass;Ramrod Flo",
    "duplicated_cas_no": "63704-81-4",
    "SMILES": "N(C(CCl)=O)(C(C)C)C1=CC=CC=C1",
    "meta_data": {
        "InChI": "InChI=1S/C11H14ClNO/c1-9(2)13(11(14)8-12)10-6-4-3-5-7-10/h3-7,9H,8H2,1-2H3",
        "InChIKey": null,
        "Canonical SMILES": "O=C(N(C=1C=CC=CC1)C(C)C)CCl",
        "Molecular Formula": "C<sub>11</sub>H<sub>14</sub>ClNO",
        "Molecular Mass": "211.69",
        "Boiling Point": "110 °C @ Press: 0.03 Torr",
        "Melting Point": "67-76 °C",
        "Density": "1.242 g/cm³ @ Temp: 25 °C"
    }
}