{
    "cas_no": "101-70-2",
    "key_name": "Bis(4-methoxyphenyl)amine",
    "cn_name": "4,4\"-二甲氧基二苯胺;",
    "alternate_name": "Benzenamine, 4-methoxy-<em>N</em>-(4-methoxyphenyl)-;Diphenylamine, 4,4′-dimethoxy-;4-Methoxy-<em>N</em>-(4-methoxyphenyl)benzenamine;<em>p</em>,<em>p</em>′-Dimethoxydiphenylamine;4,4′-Dimethoxydiphenylamine;Di(<em>p</em>-methoxyphenyl)amine;<em>N</em>-(<em>p</em>-Methoxyphenyl)-<em>p</em>-anisidine;Bis(<em>p</em>-methoxyphenyl)amine;Di-<em>p</em>-anisylamine;Bis(<em>p</em>-anisyl)amine;Difenam;Bis(4-methoxyphenyl)amine;Thermoflex;Fenam M;<em>N</em>,<em>N</em>-Bis(4-methoxyphenyl)amine;<em>N</em>-(4-Methoxyphenyl)-<em>p</em>-anisidine;Di(4-methoxyphenyl)amine",
    "duplicated_cas_no": "",
    "SMILES": "N(C1=CC=C(OC)C=C1)C2=CC=C(OC)C=C2",
    "meta_data": {
        "InChI": "InChI=1S/C14H15NO2/c1-16-13-7-3-11(4-8-13)15-12-5-9-14(17-2)10-6-12/h3-10,15H,1-2H3",
        "InChIKey": null,
        "Canonical SMILES": "O(C1=CC=C(C=C1)NC2=CC=C(OC)C=C2)C",
        "Molecular Formula": "C<sub>14</sub>H<sub>15</sub>NO<sub>2</sub>",
        "Molecular Mass": "229.27",
        "Boiling Point": "250-255 °C @ Press: 15 Torr",
        "Melting Point": "103 °C"
    }
}