{
    "cas_no": "91-10-1",
    "key_name": "2,6-Dimethoxyphenol",
    "cn_name": "2,6-二甲氧基苯酚;2,6-二甲氧基酚;紫丁香醇;",
    "alternate_name": "Phenol, 2,6-dimethoxy-;2,6-Dimethoxyphenol;Pyrogallol 1,3-dimethyl ether;Syringol;2-Hydroxy-1,3-dimethoxybenzene;1,3-Dimethoxy-2-hydroxybenzene;2,6-Dimethoxyphenic acid",
    "duplicated_cas_no": "",
    "SMILES": "O(C)C1=C(O)C(OC)=CC=C1",
    "meta_data": {
        "InChI": "InChI=1S/C8H10O3/c1-10-6-4-3-5-7(11-2)8(6)9/h3-5,9H,1-2H3",
        "InChIKey": null,
        "Canonical SMILES": "OC=1C(OC)=CC=CC1OC",
        "Molecular Formula": "C<sub>8</sub>H<sub>10</sub>O<sub>3</sub>",
        "Molecular Mass": "154.16",
        "Boiling Point": "261 °C",
        "Melting Point": "56.5 °C"
    }
}