{
    "cas_no": "23165-60-8",
    "key_name": "Benzene, 1-isothiocyanato-4-methoxy-2-nitro-",
    "cn_name": "4-甲氧基-2-硝苯基异氰酸酯;",
    "alternate_name": "Benzene, 1-isothiocyanato-4-methoxy-2-nitro-;Isothiocyanic acid, 4-methoxy-2-nitrophenyl ester;4-Methoxy-2-nitrophenyl isothiocyanate;1-Isothiocyanato-4-methoxy-2-nitrobenzene;1-Isothiocyanato-4-methoxy-2-nitro-benzene",
    "duplicated_cas_no": "",
    "SMILES": "N(=O)(=O)C1=C(N=C=S)C=CC(OC)=C1",
    "meta_data": {
        "InChI": "InChI=1S/C8H6N2O3S/c1-13-6-2-3-7(9-5-14)8(4-6)10(11)12/h2-4H,1H3",
        "InChIKey": null,
        "Canonical SMILES": "O=N(=O)C1=CC(OC)=CC=C1N=C=S",
        "Molecular Formula": "C<sub>8</sub>H<sub>6</sub>N<sub>2</sub>O<sub>3</sub>S",
        "Molecular Mass": "210.21",
        "Melting Point": "90 °C"
    }
}