{
    "cas_no": "2712-78-9",
    "key_name": "Bis(trifluoroacetoxy)iodobenzene",
    "cn_name": null,
    "alternate_name": "Iodine, phenylbis(2,2,2-trifluoroacetato-κ<em>O</em>)-;Benzene, [bis(trifluoroacetoxy)iodo]-;Iodine, phenylbis(trifluoroacetato-<em>O</em>)-;Iodine, phenylbis(trifluoroacetato-κ<em>O</em>)-;Acetic acid, trifluoro-, iodine complex;Phenylbis(2,2,2-trifluoroacetato-κ<em>O</em>)iodine;Iodobenzene bis(trifluoroacetate);Phenyliodine bis(trifluoroacetate);Phenyliodoso bis(trifluoroacetate);Phenyliodine(III) bis(trifluoroacetate);Bis(trifluoroacetoxy)iodobenzene;Bis(trifluoroacetato)phenyl iodide;Bis(trifluoroacetato)(phenyl)iodine;<em>I</em>,<em>I</em>-Bis(trifluoroacetoxy)iodobenzene;Iodobenzene di(trifluoroacetate);PIFA;Phenylbis(trifluoroacetato-κ<em>O</em>)iodine;BTIB;Bis(trifluoroacetoxy)iodobenzne;Phenylbis(trifluoroacetyloxy)iodine;[Phenyl(2,2,2-trifluoroacetyl)ox y-iodanyl] 2,2,2-trifluoroacetate",
    "duplicated_cas_no": "88800-88-8;154228-45-2;864461-24-5",
    "SMILES": "I(OC(C(F)(F)F)=O)(OC(C(F)(F)F)=O)C1=CC=CC=C1",
    "meta_data": {
        "InChI": "InChI=1S/C10H5F6IO4/c11-9(12,13)7(18)20-17(6-4-2-1-3-5-6)21-8(19)10(14,15)16/h1-5H",
        "InChIKey": null,
        "Canonical SMILES": "O=C(OI(OC(=O)C(F)(F)F)C=1C=CC=CC1)C(F)(F)F",
        "Molecular Formula": "C<sub>10</sub>H<sub>5</sub>F<sub>6</sub>IO<sub>4</sub>",
        "Molecular Mass": "430.04",
        "Melting Point": "122-124 °C"
    }
}