{
    "cas_no": "1765-42-0",
    "key_name": "2-Amino-3,4,5,6-tetrafluorobenzoic acid",
    "cn_name": "2-氨基-3,4,5,6-四氟苯甲酸;",
    "alternate_name": "Benzoic acid, 2-amino-3,4,5,6-tetrafluoro-;Anthranilic acid, 3,4,5,6-tetrafluoro-;2-Amino-3,4,5,6-tetrafluorobenzoic acid;Tetrafluoroanthranilic acid",
    "duplicated_cas_no": "",
    "SMILES": "C(O)(=O)C1=C(F)C(F)=C(F)C(F)=C1N",
    "meta_data": {
        "InChI": "InChI=1S/C7H3F4NO2/c8-2-1(7(13)14)6(12)5(11)4(10)3(2)9/h12H2,(H,13,14)",
        "InChIKey": null,
        "Canonical SMILES": "O=C(O)C=1C(F)=C(F)C(F)=C(F)C1N",
        "Molecular Formula": "C<sub>7</sub>H<sub>3</sub>F<sub>4</sub>NO<sub>2</sub>",
        "Molecular Mass": "209.10",
        "Melting Point": "141-142 °C"
    }
}