{
    "cas_no": "14290-86-9",
    "key_name": "<em>trans</em>-4-Fluorocinnamic acid",
    "cn_name": null,
    "alternate_name": "2-Propenoic acid, 3-(4-fluorophenyl)-, (2<em>E</em>)-;Cinnamic acid, <em>p</em>-fluoro-, (<em>E</em>)-;2-Propenoic acid, 3-(4-fluorophenyl)-, (<em>E</em>)-;(2<em>E</em>)-3-(4-Fluorophenyl)-2-propenoic acid;(<em>E</em>)-4-Fluorocinnamic acid;(<em>E</em>)-3-(4-Fluorophenyl)-2-propenoic acid;<em>trans</em>-4-Fluorocinnamic acid;(2E)-3-(4-Fluorophenyl)prop-2-enoic acid;<em>trans</em>-3-(4-Fluorophenyl)-2-propenoic acid;4-Fluoro-<em>trans</em>-cinnamic acid;(<em>E</em>)-<em>p</em>-Fluorocinnamic acid;(<em>E</em>)-3-(4-Fluorophenyl)acrylic acid;(E)-3-(4-Fluorophenyl)acrylic acid",
    "duplicated_cas_no": "",
    "SMILES": "C(=C/C(O)=O)\\C1=CC=C(F)C=C1",
    "meta_data": {
        "InChI": "InChI=1S/C9H7FO2/c10-8-4-1-7(2-5-8)3-6-9(11)12/h1-6H,(H,11,12)/b6-3+",
        "InChIKey": null,
        "Canonical SMILES": "O=C(O)C=CC1=CC=C(F)C=C1",
        "Molecular Formula": "C<sub>9</sub>H<sub>7</sub>FO<sub>2</sub>",
        "Molecular Mass": "166.15",
        "Melting Point": "202 °C"
    }
}