{
    "cas_no": "65676-21-3",
    "key_name": "α-(4-Chlorophenyl)-α-[2-(dimethylamino)ethyl]-2-pyridineacetonitrile",
    "cn_name": null,
    "alternate_name": "2-Pyridineacetonitrile, α-(4-chlorophenyl)-α-[2-(dimethylamino)ethyl]-;2-Pyridineacetonitrile, α-(<em>p</em>-chlorophenyl)-α-[2-(dimethylamino)ethyl]-;α-(4-Chlorophenyl)-α-[2-(dimethylamino)ethyl]-2-pyridineacetonitrile;2-(4-Chlorophenyl)-4-(dimethylamino)-2-pyridin-2-ylbutanenitrile",
    "duplicated_cas_no": "",
    "SMILES": "C(CCN(C)C)(C#N)(C1=CC=C(Cl)C=C1)C2=CC=CC=N2",
    "meta_data": {
        "InChI": "InChI=1S/C17H18ClN3/c1-21(2)12-10-17(13-19,16-5-3-4-11-20-16)14-6-8-15(18)9-7-14/h3-9,11H,10,12H2,1-2H3",
        "InChIKey": null,
        "Canonical SMILES": "N#CC(C1=NC=CC=C1)(C2=CC=C(Cl)C=C2)CCN(C)C",
        "Molecular Formula": "C<sub>17</sub>H<sub>18</sub>ClN<sub>3</sub>",
        "Molecular Mass": "299.80",
        "Boiling Point": "154-164 °C @ Press: 0.2 Torr"
    }
}