{
    "cas_no": "57835-92-4",
    "key_name": "4-Nitropyrene",
    "cn_name": null,
    "alternate_name": "Pyrene, 4-nitro-;4-Nitropyrene",
    "duplicated_cas_no": "",
    "SMILES": "N(=O)(=O)C=1C=2C3=C4C(C1)=CC=CC4=CC=C3C=CC2",
    "meta_data": {
        "InChI": "InChI=1S/C16H9NO2/c18-17(19)14-9-12-5-1-3-10-7-8-11-4-2-6-13(14)16(11)15(10)12/h1-9H",
        "InChIKey": null,
        "Canonical SMILES": "O=N(=O)C1=CC=2C=CC=C3C=CC4=CC=CC1=C4C32",
        "Molecular Formula": "C<sub>16</sub>H<sub>9</sub>NO<sub>2</sub>",
        "Molecular Mass": "247.25",
        "Melting Point": "196-197.5 °C"
    }
}