{
    "cas_no": "7095-16-1",
    "key_name": "2-Propenoic acid, 2-methyl-, magnesium salt (2:1)",
    "cn_name": "二甲基丙烯酸镁;甲基丙烯酸镁;",
    "alternate_name": "2-Propenoic acid, 2-methyl-, magnesium salt (2:1);Magnesium methacrylate;Methacrylic acid, magnesium salt;2-Propenoic acid, 2-methyl-, magnesium salt;Magnesium dimethacrylate;San Ester SK 13;Hi-Cross GT;SK 13;R-MMA 2",
    "duplicated_cas_no": "",
    "SMILES": "C(C(O)=O)(C)=C.[Mg]",
    "meta_data": {
        "InChI": "InChI=1S/C4H6O2.Mg/c1-3(2)4(5)6;/h1H2,2H3,(H,5,6);",
        "InChIKey": null,
        "Canonical SMILES": "[Mg].O=C(O)C(=C)C",
        "Molecular Formula": "C<sub>4</sub>H<sub>6</sub>O<sub>2</sub>.<sup>1</sup>/<sub>2</sub>Mg",
        "Molecular Mass": "",
        "Melting Point": "490 °C (decomp)"
    }
}