{
    "cas_no": "107-49-3",
    "key_name": "Tetraethyl pyrophosphate",
    "cn_name": null,
    "alternate_name": "Diphosphoric acid, <em>P</em>,<em>P</em>,<em>P</em>′,<em>P</em>′-tetraethyl ester;Pyrophosphoric acid, tetraethyl ester;Diphosphoric acid, tetraethyl ester;Bis-<em>O</em>,<em>O</em>-diethylphosphoric anhydride;Bladan;TEP;TEPP;Tetraethyl pyrophosphate;Vapotone;Ethyl pyrophosphate (Et<sub>4</sub>P<sub>2</sub>O<sub>7</sub>);Nifos;Tetrastigmine;Tetraethyl diphosphate;Pyrodust;Killex;TEP (phosphate);NSC 14707;NSC 646213",
    "duplicated_cas_no": "1085698-12-9",
    "SMILES": "O(P(OCC)(OCC)=O)P(OCC)(OCC)=O",
    "meta_data": {
        "InChI": "InChI=1S/C8H20O7P2/c1-5-11-16(9,12-6-2)15-17(10,13-7-3)14-8-4/h5-8H2,1-4H3",
        "InChIKey": null,
        "Canonical SMILES": "O=P(OCC)(OCC)OP(=O)(OCC)OCC",
        "Molecular Formula": "C<sub>8</sub>H<sub>20</sub>O<sub>7</sub>P<sub>2</sub>",
        "Molecular Mass": "290.19",
        "Boiling Point": "104-111 °C @ Press: 0.08 Torr",
        "Melting Point": "208-213 °C (decomp)",
        "Density": "1.185 g/cm³ @ Temp: 20 °C"
    }
}