{
    "cas_no": "496-69-5",
    "key_name": "2-Bromo-4-fluorophenol",
    "cn_name": "2-溴-4-氟苯酚;",
    "alternate_name": "Phenol, 2-bromo-4-fluoro-;2-Bromo-4-fluorophenol",
    "duplicated_cas_no": "",
    "SMILES": "BrC1=C(O)C=CC(F)=C1",
    "meta_data": {
        "InChI": "InChI=1S/C6H4BrFO/c7-5-3-4(8)1-2-6(5)9/h1-3,9H",
        "InChIKey": null,
        "Canonical SMILES": "FC1=CC=C(O)C(Br)=C1",
        "Molecular Formula": "C<sub>6</sub>H<sub>4</sub>BrFO",
        "Molecular Mass": "191.00",
        "Boiling Point": "89 °C @ Press: 1 Torr",
        "Melting Point": "43 °C"
    }
}