{
    "cas_no": "4427-56-9",
    "key_name": "Isothymol",
    "cn_name": null,
    "alternate_name": "Phenol, 4-methyl-2-(1-methylethyl)-;<em>m</em>-Cymen-4-ol;4-Methyl-2-(1-methylethyl)phenol;4-Methyl-2-isopropylphenol;2-Isopropyl-<em>p</em>-cresol;2-Isopropyl-4-methylphenol;Isothymol;NSC 62110",
    "duplicated_cas_no": "",
    "SMILES": "C(C)(C)C1=C(O)C=CC(C)=C1",
    "meta_data": {
        "InChI": "InChI=1S/C10H14O/c1-7(2)9-6-8(3)4-5-10(9)11/h4-7,11H,1-3H3",
        "InChIKey": null,
        "Canonical SMILES": "OC1=CC=C(C=C1C(C)C)C",
        "Molecular Formula": "C<sub>10</sub>H<sub>14</sub>O",
        "Molecular Mass": "150.22",
        "Boiling Point": "228.5 °C",
        "Melting Point": "36.5 °C",
        "Density": "0.9817 g/cm³ @ Temp: 17.800009765625 °C"
    }
}