{
    "cas_no": "108-45-2",
    "key_name": "<em>m</em>-Phenylenediamine",
    "cn_name": "间苯二胺;",
    "alternate_name": "1,3-Benzenediamine;<em>m</em>-Phenylenediamine;C.I. Developer 11;Developer C;Developer H;<em>m</em>-Diaminobenzene;Direct Brown BR;Developer M;1,3-Diaminobenzene;Direct Brown GG;<em>m</em>-Aminoaniline;1,3-Phenylenediamine;<em>m</em>-Benzenediamine;3-Aminoaniline;NSC 4776;1,3-Diaminophenylene;RT 30H;MPDA;KC 16765;Eposchon B",
    "duplicated_cas_no": "1266121-34-9;1274866-89-5",
    "SMILES": "NC1=CC(N)=CC=C1",
    "meta_data": {
        "InChI": "InChI=1S/C6H8N2/c7-5-2-1-3-6(8)4-5/h1-4H,7-8H2",
        "InChIKey": null,
        "Canonical SMILES": "NC1=CC=CC(N)=C1",
        "Molecular Formula": "C<sub>6</sub>H<sub>8</sub>N<sub>2</sub>",
        "Molecular Mass": "108.14",
        "Boiling Point": "284-287 °C",
        "Melting Point": "62-63 °C",
        "Density": "1.14 g/cm³"
    }
}