{
    "cas_no": "55745-70-5",
    "key_name": "2,3-Dihydrobenzofuran-5-carboxaldehyde",
    "cn_name": null,
    "alternate_name": "5-Benzofurancarboxaldehyde, 2,3-dihydro-;2,3-Dihydro-5-benzofurancarboxaldehyde;5-Formylcoumaran;5-Formyl-2,3-dihydrobenzo[<em>b</em>]furan;5-Formyl-2,3-dihydrobenzofuran;2,3-Dihydrobenzo[<em>b</em>]furan-5-carboxaldehyde;2,3-Dihydro-1-benzofuran-5-carboxaldehyde;2,3-Dihydrobenzofuran-5-carboxaldehyde;5-Formyl-2,3-dihydro-1-benzofuran;2,3-Dihydro-1-benzofuran-5-carbaldehyde;2,3-Dihydrobenzofuran-5-carbaldehyde",
    "duplicated_cas_no": "",
    "SMILES": "C(=O)C=1C=C2C(=CC1)OCC2",
    "meta_data": {
        "InChI": "InChI=1S/C9H8O2/c10-6-7-1-2-9-8(5-7)3-4-11-9/h1-2,5-6H,3-4H2",
        "InChIKey": null,
        "Canonical SMILES": "O=CC1=CC=C2OCCC2=C1",
        "Molecular Formula": "C<sub>9</sub>H<sub>8</sub>O<sub>2</sub>",
        "Molecular Mass": "148.16",
        "Boiling Point": "140-142 °C @ Press: 8 Torr"
    }
}