{
    "cas_no": "4175-37-5",
    "key_name": "<em>p</em>-Octyldiphenylamine",
    "cn_name": "4-辛基-N-苯基苯胺;4-辛基二苯胺;",
    "alternate_name": "Benzenamine, 4-octyl-<em>N</em>-phenyl-;Diphenylamine, 4-octyl-;4-Octyl-<em>N</em>-phenylbenzenamine;<em>p</em>-Octyldiphenylamine;4-Octyldiphenylamine",
    "duplicated_cas_no": "",
    "SMILES": "N(C1=CC=C(CCCCCCCC)C=C1)C2=CC=CC=C2",
    "meta_data": {
        "InChI": "InChI=1S/C20H27N/c1-2-3-4-5-6-8-11-18-14-16-20(17-15-18)21-19-12-9-7-10-13-19/h7,9-10,12-17,21H,2-6,8,11H2,1H3",
        "InChIKey": null,
        "Canonical SMILES": "C=1C=CC(=CC1)NC2=CC=C(C=C2)CCCCCCCC",
        "Molecular Formula": "C<sub>20</sub>H<sub>27</sub>N",
        "Molecular Mass": "281.44",
        "Melting Point": "41-43 °C"
    }
}