{
    "cas_no": "13074-31-2",
    "key_name": "(±)-Tetrahydropapaverine",
    "cn_name": "(+/-)-四氢罂粟碱;",
    "alternate_name": "Isoquinoline, 1-[(3,4-dimethoxyphenyl)methyl]-1,2,3,4-tetrahydro-6,7-dimethoxy-;Isoquinoline, 1,2,3,4-tetrahydro-6,7-dimethoxy-1-veratryl-;1-[(3,4-Dimethoxyphenyl)methyl]-1,2,3,4-tetrahydro-6,7-dimethoxyisoquinoline;Tetrahydropapaverine;1-(3,4-Dimethoxybenzyl)-6,7-dimethoxy-1,2,3,4-tetrahydroisoquinoline;1,2,3,4-Tetrahydropapaverine;(±)-Tetrahydropapaverine;(±)-<em>N</em>-Norlaudanosine;(±)-Norlaudanosine",
    "duplicated_cas_no": "26642-09-1",
    "SMILES": "C(C1C=2C(=CC(OC)=C(OC)C2)CCN1)C3=CC(OC)=C(OC)C=C3",
    "meta_data": {
        "InChI": "InChI=1S/C20H25NO4/c1-22-17-6-5-13(10-18(17)23-2)9-16-15-12-20(25-4)19(24-3)11-14(15)7-8-21-16/h5-6,10-12,16,21H,7-9H2,1-4H3",
        "InChIKey": null,
        "Canonical SMILES": "O(C1=CC=C(C=C1OC)CC2NCCC3=CC(OC)=C(OC)C=C32)C",
        "Molecular Formula": "C<sub>20</sub>H<sub>25</sub>NO<sub>4</sub>",
        "Molecular Mass": "343.42",
        "Melting Point": "142 °C"
    }
}