{
    "cas_no": "60468-36-2",
    "key_name": "2-Chloro-1-(2,5-difluorophenyl)ethanone",
    "cn_name": "2-氯-2\",5\"-二氟苯乙酮;2-氯-1-(2,5-二氟苯基)乙酮;",
    "alternate_name": "Ethanone, 2-chloro-1-(2,5-difluorophenyl)-;2-Chloro-1-(2,5-difluorophenyl)ethanone;2-Chloro-1-(2,5-difluorophenyl)ethan-1-one",
    "duplicated_cas_no": "",
    "SMILES": "C(CCl)(=O)C1=C(F)C=CC(F)=C1",
    "meta_data": {
        "InChI": "InChI=1S/C8H5ClF2O/c9-4-8(12)6-3-5(10)1-2-7(6)11/h1-3H,4H2",
        "InChIKey": null,
        "Canonical SMILES": "O=C(C1=CC(F)=CC=C1F)CCl",
        "Molecular Formula": "C<sub>8</sub>H<sub>5</sub>ClF<sub>2</sub>O",
        "Molecular Mass": "190.57",
        "Melting Point": "49-50 °C"
    }
}