{
    "cas_no": "1448-98-2",
    "key_name": "<em>N</em>-(Aminocarbonyl)-2-cyanoacetamide",
    "cn_name": "氰乙酰脲;N-(2-氰乙酰基)脲;",
    "alternate_name": "Acetamide, <em>N</em>-(aminocarbonyl)-2-cyano-;Urea, (cyanoacetyl)-;<em>N</em>-(Aminocarbonyl)-2-cyanoacetamide;(Cyanoacetyl)urea;(2-Cyanoethanoyl)urea;NSC 6287;<em>N</em>-Carbamoyl-2-cyanoacetamide;(2-Cyanoacetyl)urea",
    "duplicated_cas_no": "",
    "SMILES": "N(C(CC#N)=O)C(N)=O",
    "meta_data": {
        "InChI": "InChI=1S/C4H5N3O2/c5-2-1-3(8)7-4(6)9/h1H2,(H3,6,7,8,9)",
        "InChIKey": null,
        "Canonical SMILES": "N#CCC(=O)NC(=O)N",
        "Molecular Formula": "C<sub>4</sub>H<sub>5</sub>N<sub>3</sub>O<sub>2</sub>",
        "Molecular Mass": "127.10",
        "Melting Point": "161 °C"
    }
}