{
    "cas_no": "1825-68-9",
    "key_name": "Chloromethoxydimethylsilane",
    "cn_name": "氯甲氧基二甲基硅烷;",
    "alternate_name": "Silane, chloromethoxydimethyl-;Chloromethoxydimethylsilane;Dimethylmethoxychlorosilane;Methoxydimethylchlorosilane;Dimethylmethoxysilyl chloride;Methoxychlorodimethylsilane;Chlorodimethylmethoxysilane;Methoxydimethylsilyl chloride",
    "duplicated_cas_no": "",
    "SMILES": "[Si](OC)(C)(C)Cl",
    "meta_data": {
        "InChI": "InChI=1S/C3H9ClOSi/c1-5-6(2,3)4/h1-3H3",
        "InChIKey": null,
        "Canonical SMILES": "Cl[Si](OC)(C)C",
        "Molecular Formula": "C<sub>3</sub>H<sub>9</sub>ClOSi",
        "Molecular Mass": "124.64",
        "Boiling Point": "77 °C",
        "Density": "0.953 g/cm³ @ Temp: 25 °C"
    }
}