{
    "cas_no": "2479-49-4",
    "key_name": "Benzophenonetetracarboxylic acid",
    "cn_name": "3,3\",4,4\"-四甲酸二苯甲酮;",
    "alternate_name": "1,2-Benzenedicarboxylic acid, 4,4′-carbonylbis-;Phthalic acid, 4,4′-carbonyldi-;4,4′-Carbonylbis[1,2-benzenedicarboxylic acid];3,3′,4,4′-Benzophenonetetracarboxylic acid;4,4′-Carbonyldiphthalic acid;3,3′,4,4′-Tetracarboxybenzophenone;Benzophenonetetracarboxylic acid",
    "duplicated_cas_no": "114367-57-6;50976-11-9;50986-44-2;72252-62-1",
    "SMILES": "C(=O)(C1=CC(C(O)=O)=C(C(O)=O)C=C1)C2=CC(C(O)=O)=C(C(O)=O)C=C2",
    "meta_data": {
        "InChI": "InChI=1S/C17H10O9/c18-13(7-1-3-9(14(19)20)11(5-7)16(23)24)8-2-4-10(15(21)22)12(6-8)17(25)26/h1-6H,(H,19,20)(H,21,22)(H,23,24)(H,25,26)",
        "InChIKey": null,
        "Canonical SMILES": "O=C(O)C1=CC=C(C=C1C(=O)O)C(=O)C2=CC=C(C(=O)O)C(=C2)C(=O)O",
        "Molecular Formula": "C<sub>17</sub>H<sub>10</sub>O<sub>9</sub>",
        "Molecular Mass": "358.26",
        "Melting Point": "224 °C"
    }
}