{
    "cas_no": "311-89-7",
    "key_name": "Perfluorotributylamine",
    "cn_name": "全氟三丁胺;FC-43;",
    "alternate_name": "1-Butanamine, 1,1,2,2,3,3,4,4,4-nonafluoro-<em>N</em>,<em>N</em>-bis(1,1,2,2,3,3,4,4,4-nonafluorobutyl)-;Tributylamine, heptacosafluoro-;1-Butanamine, 1,1,2,2,3,3,4,4,4-nonafluoro-<em>N</em>,<em>N</em>-bis(nonafluorobutyl)-;1,1,2,2,3,3,4,4,4-Nonafluoro-<em>N</em>,<em>N</em>-bis(1,1,2,2,3,3,4,4,4-nonafluorobutyl)-1-butanamine;FC 43;Tri(perfluorobutyl)amine;Heptacosafluorotributylamine;Fluorocarbon FC 43;Tris(nonafluorobutyl)amine;FC 47;Perfluorotri-<em>n</em>-butylamine;Fluorinert FC 43;Medifluor FC 47;Mediflor FC 43;Tris(perfluorobutyl)amine;Fluosol FC 43;Eftop EF-L 174;Oxyferol;PFTBA;Afluid E 18;Perfluorotributylamine;Fluorinert 43;NSC 3501;EFL 174S;Tri (<em>n</em>-butyl perfluoro);CT-solv 180;Flourinert FC 40",
    "duplicated_cas_no": "39289-23-1;69072-86-2;90803-72-8;93792-84-8;146175-90-8;178463-15-5;1201928-35-9",
    "SMILES": "N(C(C(C(C(F)(F)F)(F)F)(F)F)(F)F)(C(C(C(C(F)(F)F)(F)F)(F)F)(F)F)C(C(C(C(F)(F)F)(F)F)(F)F)(F)F",
    "meta_data": {
        "InChI": "InChI=1S/C12F27N/c13-1(14,7(25,26)27)4(19,20)10(34,35)40(11(36,37)5(21,22)2(15,16)8(28,29)30)12(38,39)6(23,24)3(17,18)9(31,32)33",
        "InChIKey": null,
        "Canonical SMILES": "FC(F)(F)C(F)(F)C(F)(F)C(F)(F)N(C(F)(F)C(F)(F)C(F)(F)C(F)(F)F)C(F)(F)C(F)(F)C(F)(F)C(F)(F)F",
        "Molecular Formula": "C<sub>12</sub>F<sub>27</sub>N",
        "Molecular Mass": "671.09",
        "Boiling Point": "178 °C",
        "Melting Point": "-50 °C",
        "Density": "1.884 g/cm³ @ Temp: 25 °C"
    }
}