{
    "cas_no": "18729-48-1",
    "key_name": "3-Methylcyclopentanol",
    "cn_name": "3-甲基环戊醇;",
    "alternate_name": "Cyclopentanol, 3-methyl-;3-Methylcyclopentanol;3-Methylcyclopentan-1-ol",
    "duplicated_cas_no": "",
    "SMILES": "CC1CC(O)CC1",
    "meta_data": {
        "InChI": "InChI=1S/C6H12O/c1-5-2-3-6(7)4-5/h5-7H,2-4H2,1H3",
        "InChIKey": null,
        "Canonical SMILES": "OC1CCC(C)C1",
        "Molecular Formula": "C<sub>6</sub>H<sub>12</sub>O",
        "Molecular Mass": "100.16",
        "Boiling Point": "148.5 °C",
        "Density": "0.9120 g/cm³ @ Temp: 20 °C"
    }
}