{
    "cas_no": "630-18-2",
    "key_name": "2,2-Dimethylpropanenitrile",
    "cn_name": "三甲基乙腈;2,2-二甲基丙腈；氰化叔丁烷；2,2-二甲基丙腈；氰化三級丁基；三甲基乙腈, 98+%；新戊腈;",
    "alternate_name": "Propanenitrile, 2,2-dimethyl-;Pivalonitrile;2,2-Dimethylpropanenitrile;<em>tert</em>-Butyl cyanide;Trimethylacetonitrile;2,2-Dimethylpropionitrile;<em>tert</em>-Butylnitrile;2-Cyano-2-methylpropane;Neopentanenitrile;NSC 890",
    "duplicated_cas_no": "1800084-88-1",
    "SMILES": "C(C#N)(C)(C)C",
    "meta_data": {
        "InChI": "InChI=1S/C5H9N/c1-5(2,3)4-6/h1-3H3",
        "InChIKey": null,
        "Canonical SMILES": "N#CC(C)(C)C",
        "Molecular Formula": "C<sub>5</sub>H<sub>9</sub>N",
        "Molecular Mass": "83.13",
        "Boiling Point": "106.1 °C",
        "Melting Point": "15 °C"
    }
}