{
    "cas_no": "25637-84-7",
    "key_name": "Diolein",
    "cn_name": "(Z)-9-十八烯酸与1,2,3-丙三醇的二酯;",
    "alternate_name": "9-Octadecenoic acid (9<em>Z</em>)-, diester with 1,2,3-propanetriol;Olein, di-;9-Octadecenoic acid (<em>Z</em>)-, diester with 1,2,3-propanetriol;Diolein;Glycerol dioleate;Glyceryl dioleate;Oleic acid diglyceride;Dioleoylglycerol;DGO 8;Nikkol DGO 80;Glycerin dioleate;Emulsifier TS-PH 008;Ligalub 12GE;DAG-18:1/18:1",
    "duplicated_cas_no": "1331-02-8;12776-09-9;32199-00-1;171884-98-3;1202867-09-1",
    "SMILES": "",
    "meta_data": {
        "InChI": "",
        "InChIKey": null,
        "Canonical SMILES": "",
        "Molecular Formula": "C<sub>39</sub>H<sub>72</sub>O<sub>5</sub>",
        "Molecular Mass": "",
        "Melting Point": "12 °C",
        "Density": "0.89-0.92 g/cm³ @ Temp: 50 °C"
    }
}