{
    "cas_no": "3652-92-4",
    "key_name": "2,3-Dihydro-1,3-dimethyl-2-phenyl-1<em>H</em>-benzimidazole",
    "cn_name": null,
    "alternate_name": "1<em>H</em>-Benzimidazole, 2,3-dihydro-1,3-dimethyl-2-phenyl-;Benzimidazoline, 1,3-dimethyl-2-phenyl-;2,3-Dihydro-1,3-dimethyl-2-phenyl-1<em>H</em>-benzimidazole;1,3-Dimethyl-2-phenylbenzimidazoline;1,3-Dimethyl-2-phenyl-2,3-dihydro-1<em>H</em>-benzo[<em>d</em>]imidazole",
    "duplicated_cas_no": "",
    "SMILES": "CN1C(N(C)C=2C1=CC=CC2)C3=CC=CC=C3",
    "meta_data": {
        "InChI": "InChI=1S/C15H16N2/c1-16-13-10-6-7-11-14(13)17(2)15(16)12-8-4-3-5-9-12/h3-11,15H,1-2H3",
        "InChIKey": null,
        "Canonical SMILES": "C=1C=CC(=CC1)C2N(C=3C=CC=CC3N2C)C",
        "Molecular Formula": "C<sub>15</sub>H<sub>16</sub>N<sub>2</sub>",
        "Molecular Mass": "224.30",
        "Melting Point": "93-94 °C"
    }
}