{
    "cas_no": "28004-63-9",
    "key_name": "5-(2,4-Dichlorophenyl)-1,3,4-thiadiazol-2-amine",
    "cn_name": null,
    "alternate_name": "1,3,4-Thiadiazol-2-amine, 5-(2,4-dichlorophenyl)-;1,3,4-Thiadiazole, 2-amino-5-(2,4-dichlorophenyl)-;5-(2,4-Dichlorophenyl)-1,3,4-thiadiazol-2-amine;2-Amino-5-(2,4-dichlorophenyl)-(1,3,4)-thiadiazole",
    "duplicated_cas_no": "",
    "SMILES": "ClC1=C(C=CC(Cl)=C1)C=2SC(N)=NN2",
    "meta_data": {
        "InChI": "InChI=1S/C8H5Cl2N3S/c9-4-1-2-5(6(10)3-4)7-12-13-8(11)14-7/h1-3H,(H2,11,13)",
        "InChIKey": null,
        "Canonical SMILES": "ClC=1C=CC(=C(Cl)C1)C2=NN=C(S2)N",
        "Molecular Formula": "C<sub>8</sub>H<sub>5</sub>Cl<sub>2</sub>N<sub>3</sub>S",
        "Molecular Mass": "246.12",
        "Melting Point": "240-242 °C"
    }
}