{
    "cas_no": "71215-89-9",
    "key_name": "2-Methyl-5-phenylbenzothiazole",
    "cn_name": "2-甲基-5-苯基苯并噻唑;2-甲基-5-苯基硫氮茚;",
    "alternate_name": "Benzothiazole, 2-methyl-5-phenyl-;2-Methyl-5-phenylbenzothiazole;2-Methyl-5-phenyl-1,3-benzothiazole",
    "duplicated_cas_no": "",
    "SMILES": "CC1=NC=2C(=CC=C(C2)C3=CC=CC=C3)S1",
    "meta_data": {
        "InChI": "InChI=1S/C14H11NS/c1-10-15-13-9-12(7-8-14(13)16-10)11-5-3-2-4-6-11/h2-9H,1H3",
        "InChIKey": null,
        "Canonical SMILES": "N=1C2=CC(=CC=C2SC1C)C=3C=CC=CC3",
        "Molecular Formula": "C<sub>14</sub>H<sub>11</sub>NS",
        "Molecular Mass": "225.31",
        "Boiling Point": "209-210 °C @ Press: 8 Torr",
        "Melting Point": "89 °C"
    }
}