{
    "cas_no": "4039-32-1",
    "key_name": "Lithium bis(trimethylsilyl)amide",
    "cn_name": "双三甲基硅基胺基锂;",
    "alternate_name": "Silanamine, 1,1,1-trimethyl-<em>N</em>-(trimethylsilyl)-, lithium salt (1:1);Silanamine, 1,1,1-trimethyl-<em>N</em>-(trimethylsilyl)-, lithium salt;Lithium, [bis(trimethylsilyl)amino]-;Disilazane, 1,1,1,3,3,3-hexamethyl-, lithium salt;Disilazane, 1,1,1,3,3,3-hexamethyl-, Li deriv.;Lithium hexamethyldisilazane;Bis(trimethylsilyl)amidolithium;Hexamethyldisilazane lithium salt;Lithium bis(trimethylsilyl)amine;Lithium hexamethyldisilazide;1,1,1,3,3,3-Hexamethyldisilazane lithium salt;Lithiobis(trimethylsilyl)amide;Lithium hexamethyldisilazanide;Lithiohexamethyldisilazane;Lithium bis(trimethylsilyl)amide;Lithium hexamethyldisilazanate;[1,1,1-Trimethyl-<em>N</em>-(trimethylsilyl)silanaminato]lithium;(Hexamethyldisilazane)lithium;1,1,1-Trimethyl-<em>N</em>-(trimethylsilyl)silanamine lithium salt;<em>N</em>-Lithiohexamethyldisilazane;<em>N</em>,<em>N</em>-Bis(trimethylsilyl)amine lithium salt;LiHMDS;Lithium bis(trimethylsilyl)amide(1-);LHMDS",
    "duplicated_cas_no": "66568-21-6;68092-53-5;97462-05-0;166307-01-3;170947-20-3;330660-50-9;552321-61-6;618461-92-0;1085692-82-5;1116027-23-6;1314137-48-8;1639136-05-2;2235416-87-0;2743550-22-1",
    "SMILES": "N([Si](C)(C)C)[Si](C)(C)C.[Li]",
    "meta_data": {
        "InChI": "InChI=1S/C6H19NSi2.Li/c1-8(2,3)7-9(4,5)6;/h7H,1-6H3;",
        "InChIKey": null,
        "Canonical SMILES": "[Li].N([Si](C)(C)C)[Si](C)(C)C",
        "Molecular Formula": "C<sub>6</sub>H<sub>19</sub>NSi<sub>2</sub>.Li",
        "Molecular Mass": "",
        "Boiling Point": "110-115 °C @ Press: 1 Torr",
        "Melting Point": "70-71 °C",
        "Density": "0.891 g/cm³"
    }
}