{
    "cas_no": "2767-70-6",
    "key_name": "(4-Nitrobenzyl)triphenylphosphonium bromide",
    "cn_name": "(4-硝基苄基)三苯基溴化膦;(4-硝基苄基)三苯基溴化膦;",
    "alternate_name": "Phosphonium, [(4-nitrophenyl)methyl]triphenyl-, bromide (1:1);Phosphonium, (<em>p</em>-nitrobenzyl)triphenyl-, bromide;Phosphonium, [(4-nitrophenyl)methyl]triphenyl-, bromide;(<em>p</em>-Nitrobenzyl)triphenylphosphonium bromide;(4-Nitrobenzyl)triphenylphosphonium bromide;Triphenyl(<em>p</em>-nitrobenzyl)phosphonium bromide;NSC 104840;NSC 617038;Bromo[(4-nitrophenyl)methyl]triphenylphosphorane",
    "duplicated_cas_no": "118559-71-0;313676-92-5",
    "SMILES": "[P+](CC1=CC=C(N(=O)=O)C=C1)(C2=CC=CC=C2)(C3=CC=CC=C3)C4=CC=CC=C4.[Br-]",
    "meta_data": {
        "InChI": "InChI=1S/C25H21NO2P.BrH/c27-26(28)22-18-16-21(17-19-22)20-29(23-10-4-1-5-11-23,24-12-6-2-7-13-24)25-14-8-3-9-15-25;/h1-19H,20H2;1H/q+1;/p-1",
        "InChIKey": null,
        "Canonical SMILES": "[Br-].O=N(=O)C1=CC=C(C=C1)C[P+](C=2C=CC=CC2)(C=3C=CC=CC3)C=4C=CC=CC4",
        "Molecular Formula": "C<sub>25</sub>H<sub>21</sub>NO<sub>2</sub>P.Br",
        "Molecular Mass": "",
        "Melting Point": "261 °C (decomp)"
    }
}