{
    "cas_no": "1639-60-7",
    "key_name": "Dextropropoxyphene hydrochloride",
    "cn_name": null,
    "alternate_name": "Benzeneethanol, α-[(1<em>R</em>)-2-(dimethylamino)-1-methylethyl]-α-phenyl-, 1-propanoate, hydrochloride (1:1), (α<em>S</em>)-;2-Butanol, 4-(dimethylamino)-3-methyl-1,2-diphenyl-, propionate (ester), hydrochloride, (2<em>S</em>,3<em>R</em>)-(+)-;Benzeneethanol, α-[2-(dimethylamino)-1-methylethyl]-α-phenyl-, propanoate (ester), hydrochloride, [<em>S</em>-(<em>R</em>*,<em>S</em>*)]-;Benzeneethanol, α-[(1<em>R</em>)-2-(dimethylamino)-1-methylethyl]-α-phenyl-, propanoate (ester), hydrochloride, (α<em>S</em>)-;2-Butanol, 4-(dimethylamino)-3-methyl-1,2-diphenyl-, propinate (ester), hydrochloride (+)-;Darvon hydrochloride;Dextropropoxyphene hydrochloride;<em>d</em>-4-Dimethylamino-3-methyl-1,2-diphenyl-2-butanol propionate hydrochloride;Propoxyphene hydrochloride;α-(+)-Propoxyphene hydrochloride;<em>d</em>-Propoxyphene hydrochloride;Darvon;α-<em>d</em>-Propoxyphene hydrochloride;(+)-Propoxyphene hydrochloride;<em>d</em>-Propoxyphene monohydrochloride;α-Propoxyphene hydrochloride;Propoxyphen hydrochloride;Doloxen;Erantin;Doloxene;Algaphan;Propoxychel;SK 65;Harmar;Femadol;Antalvic;Deprancol;Dolene;Dolocap;Develin;Proxagesic;Dextropropoxiphene Chloride",
    "duplicated_cas_no": "62-69-1;6414-50-2;6585-54-2;25312-78-1;56533-07-4",
    "SMILES": "[C@@](CC1=CC=CC=C1)([C@@H](CN(C)C)C)(OC(CC)=O)C2=CC=CC=C2.Cl",
    "meta_data": {
        "InChI": "InChI=1S/C22H29NO2.ClH/c1-5-21(24)25-22(18(2)17-23(3)4,20-14-10-7-11-15-20)16-19-12-8-6-9-13-19;/h6-15,18H,5,16-17H2,1-4H3;1H/t18-,22+;/m1./s1",
        "InChIKey": null,
        "Canonical SMILES": "Cl.O=C(OC(C=1C=CC=CC1)(CC=2C=CC=CC2)C(C)CN(C)C)CC",
        "Molecular Formula": "C<sub>22</sub>H<sub>29</sub>NO<sub>2</sub>.ClH",
        "Molecular Mass": "",
        "Melting Point": "163-165 °C"
    }
}