{
    "cas_no": "124832-26-4",
    "key_name": "Valacyclovir",
    "cn_name": "伐昔洛韦;L-缬氨酸-2-[(6-氧代-2-氨基-1,6-二氢-9H-嘌呤-9-基)甲氧基]乙基酯;",
    "alternate_name": "<span class=\"text-smallcaps\">L</span>-Valine, 2-[(2-amino-1,6-dihydro-6-oxo-9<em>H</em>-purin-9-yl)methoxy]ethyl ester;<span class=\"text-smallcaps\">L</span>-Valine ester with 9-[(2-hydroxyethoxy)methyl]guanine;Valaciclovir;Valacyclovir;ValACV;256U87;<span class=\"text-smallcaps\">L</span>-VACV;Valcivir;2-[(2-Amino-6-oxo-3<em>H</em>-purin-9-yl)methoxy]ethyl (2S)-2-amino-3-methylbutanoate;2-[(2-Amino-6-oxo-6,9-dihydro-1<em>H</em>-purin-9-yl)methoxy]ethyl (2S)-2-amino-3-methylbutanoate",
    "duplicated_cas_no": "",
    "SMILES": "C(OCCOC([C@H](C(C)C)N)=O)N1C2=C(N=C1)C(=O)N=C(N)N2",
    "meta_data": {
        "InChI": "InChI=1S/C13H20N6O4/c1-7(2)8(14)12(21)23-4-3-22-6-19-5-16-9-10(19)17-13(15)18-11(9)20/h5,7-8H,3-4,6,14H2,1-2H3,(H3,15,17,18,20)/t8-/m0/s1",
        "InChIKey": null,
        "Canonical SMILES": "O=C1N=C(N)NC2=C1N=CN2COCCOC(=O)C(N)C(C)C",
        "Molecular Formula": "C<sub>13</sub>H<sub>20</sub>N<sub>6</sub>O<sub>4</sub>",
        "Molecular Mass": "324.34",
        "Melting Point": "299 °C"
    }
}