{
    "cas_no": "52208-56-7",
    "key_name": "3-Chloro-2,6-difluoropyridine",
    "cn_name": null,
    "alternate_name": "Pyridine, 3-chloro-2,6-difluoro-;3-Chloro-2,6-difluoropyridine;2,6-Difluoro-3-chloropyridine",
    "duplicated_cas_no": "",
    "SMILES": "FC1=C(Cl)C=CC(F)=N1",
    "meta_data": {
        "InChI": "InChI=1S/C5H2ClF2N/c6-3-1-2-4(7)9-5(3)8/h1-2H",
        "InChIKey": null,
        "Canonical SMILES": "FC=1N=C(F)C(Cl)=CC1",
        "Molecular Formula": "C<sub>5</sub>H<sub>2</sub>ClF<sub>2</sub>N",
        "Molecular Mass": "149.53",
        "Boiling Point": "151 °C @ Press: 760 Torr"
    }
}