{
    "cas_no": "2036-13-7",
    "key_name": "9<em>H</em>-Purine-6-carbonitrile",
    "cn_name": null,
    "alternate_name": "9<em>H</em>-Purine-6-carbonitrile;Purine-6-carbonitrile;1<em>H</em>-Purine-6-carbonitrile;6-Cyanopurine;NSC 21625",
    "duplicated_cas_no": "2365-41-5",
    "SMILES": "C(#N)C1=C2C(N=CN2)=NC=N1",
    "meta_data": {
        "InChI": "InChI=1S/C6H3N5/c7-1-4-5-6(10-2-8-4)11-3-9-5/h2-3H,(H,8,9,10,11)",
        "InChIKey": null,
        "Canonical SMILES": "N#CC1=NC=NC=2N=CNC12",
        "Molecular Formula": "C<sub>6</sub>H<sub>3</sub>N<sub>5</sub>",
        "Molecular Mass": "145.12",
        "Melting Point": "177-178 °C"
    }
}