{
    "cas_no": "7253-07-8",
    "key_name": "Phosphonium, 9<em>H</em>-fluoren-9-yltriphenyl-, bromide (1:1)",
    "cn_name": "(9-芴基)三苯基溴化磷;",
    "alternate_name": "Phosphonium, 9<em>H</em>-fluoren-9-yltriphenyl-, bromide (1:1);Phosphonium, fluoren-9-yltriphenyl-, bromide;Phosphonium, 9<em>H</em>-fluoren-9-yltriphenyl-, bromide;9-Fluorenyltriphenylphosphonium bromide;NSC 67714;(9<em>H</em>-Fluoren-9-yl)triphenylphosphonium bromide",
    "duplicated_cas_no": "",
    "SMILES": "[P+](C1C=2C(C=3C1=CC=CC3)=CC=CC2)(C4=CC=CC=C4)(C5=CC=CC=C5)C6=CC=CC=C6.[Br-]",
    "meta_data": {
        "InChI": "InChI=1S/C31H24P.BrH/c1-4-14-24(15-5-1)32(25-16-6-2-7-17-25,26-18-8-3-9-19-26)31-29-22-12-10-20-27(29)28-21-11-13-23-30(28)31;/h1-23,31H;1H/q+1;/p-1",
        "InChIKey": null,
        "Canonical SMILES": "[Br-].C=1C=CC(=CC1)[P+](C=2C=CC=CC2)(C=3C=CC=CC3)C4C=5C=CC=CC5C=6C=CC=CC64",
        "Molecular Formula": "C<sub>31</sub>H<sub>24</sub>P.Br",
        "Molecular Mass": "",
        "Melting Point": "303 °C (decomp)"
    }
}