{
    "cas_no": "2486-71-7",
    "key_name": "4-Amino-3-chlorobenzoic acid",
    "cn_name": "3-氯-4-氨基苯甲酸;间氯对氨基苯甲酸;",
    "alternate_name": "Benzoic acid, 4-amino-3-chloro-;4-Amino-3-chlorobenzoic acid;3-Chloro-4-aminobenzoic acid;NSC 212132",
    "duplicated_cas_no": "",
    "SMILES": "C(O)(=O)C1=CC(Cl)=C(N)C=C1",
    "meta_data": {
        "InChI": "InChI=1S/C7H6ClNO2/c8-5-3-4(7(10)11)1-2-6(5)9/h1-3H,9H2,(H,10,11)",
        "InChIKey": null,
        "Canonical SMILES": "O=C(O)C1=CC=C(N)C(Cl)=C1",
        "Molecular Formula": "C<sub>7</sub>H<sub>6</sub>ClNO<sub>2</sub>",
        "Molecular Mass": "171.58",
        "Melting Point": "225.5-227.0 °C"
    }
}