{
    "cas_no": "131833-93-7",
    "key_name": "2,2-Bis[2-[4(<em>S</em>)-<em>tert</em>-butyl-1,3-oxazolinyl]]propane",
    "cn_name": "(S,S)-(-)-2,2\"-异丙叉双(4-叔丁基-2-噁唑啉);2,2\"-亚异丙酯二[(4S)-4-叔丁基-2-恶唑];",
    "alternate_name": "Oxazole, 2,2′-(1-methylethylidene)bis[4-(1,1-dimethylethyl)-4,5-dihydro-, (4<em>S</em>,4′<em>S</em>)-;Oxazole, 2,2′-(1-methylethylidene)bis[4-(1,1-dimethylethyl)-4,5-dihydro-, [<em>S</em>-(<em>R</em>*,<em>R</em>*)]-;(4<em>S</em>,4′<em>S</em>)-2,2′-(1-Methylethylidene)bis[4-(1,1-dimethylethyl)-4,5-dihydrooxazole];2,2-Bis[2-[4(<em>S</em>)-<em>tert</em>-butyl-1,3-oxazolinyl]]propane;2,2-Bis((<em>S</em>)-4-<em>tert</em>-butyl-2-oxazolin-2-yl)propane;Isopropylidenebis[(4S)-4-<em>tert</em>-butyl-2-oxazoline];(<em>S</em>,<em>S</em>)-2,2′-Isopropylidenebis[4-<em>tert</em>-butyl-2-oxazoline];(<em>S</em>)-2,2′-Isopropylidenebis(4-<em>tert</em>-butyl-2-oxazoline);2,2-Bis((4<em>S</em>)-4-<em>tert</em>-butyl-4,5-dihydrooxazol-2-yl)propane;(<em>S</em>,<em>S</em>)-<em>t</em>-BuBox",
    "duplicated_cas_no": "",
    "SMILES": "C(C)(C)(C1=N[C@@H](C(C)(C)C)CO1)C2=N[C@@H]([C@](C)(C)C)CO2",
    "meta_data": {
        "InChI": "InChI=1S/C17H30N2O2/c1-15(2,3)11-9-20-13(18-11)17(7,8)14-19-12(10-21-14)16(4,5)6/h11-12H,9-10H2,1-8H3/t11-,12-/m1/s1",
        "InChIKey": null,
        "Canonical SMILES": "N1=C(OCC1C(C)(C)C)C(C2=NC(CO2)C(C)(C)C)(C)C",
        "Molecular Formula": "C<sub>17</sub>H<sub>30</sub>N<sub>2</sub>O<sub>2</sub>",
        "Molecular Mass": "294.43",
        "Melting Point": "82 °C"
    }
}