{
    "cas_no": "5657-17-0",
    "key_name": "Ethylenediaminediacetic acid",
    "cn_name": "乙二胺-N,N\"-二乙酸;",
    "alternate_name": "Glycine, <em>N</em>,<em>N</em>′-1,2-ethanediylbis-;Glycine, <em>N</em>,<em>N</em>′-ethylenedi-;<em>N</em>,<em>N</em>′-1,2-Ethanediylbis[glycine];<em>N</em>,<em>N</em>′-Ethylenediaminediacetic acid;Ethylenediiminodiacetic acid;EDDA;Acetic acid, 2,2′-(1,2-ethanediyldiimino)bis-;Ethylenediamine-<em>N</em>,<em>N</em>′-diacetic acid;Ethylenediaminediacetic acid;1,2-Bis(carboxymethylamino)ethane;<em>N</em>,<em>N</em>′-Ethylenediglycine;Ethylenediimino-<em>N</em>,<em>N</em>′-diacetic acid;1,2-Ethylenediamine-<em>N</em>,<em>N</em>′-diacetic acid;<em>N</em>,<em>N</em>′-Bis(carboxymethyl)ethylenediamine;2,2′-(Ethane-1,2-diylbis(azanediyl))diacetic acid;2-[2-(Carboxymethylamino)ethylamino]acetic acid",
    "duplicated_cas_no": "37335-13-0",
    "SMILES": "N(CC(O)=O)CCNCC(O)=O",
    "meta_data": {
        "InChI": "InChI=1S/C6H12N2O4/c9-5(10)3-7-1-2-8-4-6(11)12/h7-8H,1-4H2,(H,9,10)(H,11,12)",
        "InChIKey": null,
        "Canonical SMILES": "O=C(O)CNCCNCC(=O)O",
        "Molecular Formula": "C<sub>6</sub>H<sub>12</sub>N<sub>2</sub>O<sub>4</sub>",
        "Molecular Mass": "176.17",
        "Boiling Point": "439 °C",
        "Melting Point": "228 °C (decomp)"
    }
}