{
    "cas_no": "54777-65-0",
    "key_name": "<em>N</em>-[4-(Chloromethyl)phenyl]acetamide",
    "cn_name": null,
    "alternate_name": "Acetamide, <em>N</em>-[4-(chloromethyl)phenyl]-;<em>p</em>-Acetotoluidide, α-chloro-;<em>N</em>-[4-(Chloromethyl)phenyl]acetamide;4′-(Chloromethyl)acetanilide;4-Acetylaminobenzyl chloride;<em>N</em>-[<em>p</em>-(Chloromethyl)phenyl]acetamide;4-Acetamidobenzyl chloride",
    "duplicated_cas_no": "",
    "SMILES": "N(C(C)=O)C1=CC=C(CCl)C=C1",
    "meta_data": {
        "InChI": "InChI=1S/C9H10ClNO/c1-7(12)11-9-4-2-8(6-10)3-5-9/h2-5H,6H2,1H3,(H,11,12)",
        "InChIKey": null,
        "Canonical SMILES": "O=C(NC1=CC=C(C=C1)CCl)C",
        "Molecular Formula": "C<sub>9</sub>H<sub>10</sub>ClNO",
        "Molecular Mass": "183.63",
        "Melting Point": "153 °C"
    }
}