{
    "cas_no": "53846-50-7",
    "key_name": "(-)-8-Prenylnaringenin",
    "cn_name": null,
    "alternate_name": "4<em>H</em>-1-Benzopyran-4-one, 2,3-dihydro-5,7-dihydroxy-2-(4-hydroxyphenyl)-8-(3-methyl-2-buten-1-yl)-, (2<em>S</em>)-;4<em>H</em>-1-Benzopyran-4-one, 2,3-dihydro-5,7-dihydroxy-2-(4-hydroxyphenyl)-8-(3-methyl-2-butenyl)-, (<em>S</em>)-;4<em>H</em>-1-Benzopyran-4-one, 2,3-dihydro-5,7-dihydroxy-2-(4-hydroxyphenyl)-8-(3-methyl-2-butenyl)-, (2<em>S</em>)-;(2<em>S</em>)-2,3-Dihydro-5,7-dihydroxy-2-(4-hydroxyphenyl)-8-(3-methyl-2-buten-1-yl)-4<em>H</em>-1-benzopyran-4-one;Flavaprenin;Sophoraflavanone B;8-<em>C</em>-Prenylnaringenin;8-Prenylnaringenin;(-)-8-Prenylnaringenin;8-Prenylnarangenin",
    "duplicated_cas_no": "",
    "SMILES": "O=C1C=2C(=C(CC=C(C)C)C(O)=CC2O)O[C@@H](C1)C3=CC=C(O)C=C3",
    "meta_data": {
        "InChI": "InChI=1S/C20H20O5/c1-11(2)3-8-14-15(22)9-16(23)19-17(24)10-18(25-20(14)19)12-4-6-13(21)7-5-12/h3-7,9,18,21-23H,8,10H2,1-2H3/t18-/m0/s1",
        "InChIKey": null,
        "Canonical SMILES": "O=C1C2=C(O)C=C(O)C(=C2OC(C3=CC=C(O)C=C3)C1)CC=C(C)C",
        "Molecular Formula": "C<sub>20</sub>H<sub>20</sub>O<sub>5</sub>",
        "Molecular Mass": "340.37",
        "Melting Point": "20-32 °C"
    }
}