{
    "cas_no": "14345-97-2",
    "key_name": "2-Chloro-3-methylthiophene",
    "cn_name": "2-氯-3-甲基噻吩;",
    "alternate_name": "Thiophene, 2-chloro-3-methyl-;2-Chloro-3-methylthiophene",
    "duplicated_cas_no": "",
    "SMILES": "CC1=C(Cl)SC=C1",
    "meta_data": {
        "InChI": "InChI=1S/C5H5ClS/c1-4-2-3-7-5(4)6/h2-3H,1H3",
        "InChIKey": null,
        "Canonical SMILES": "ClC=1SC=CC1C",
        "Molecular Formula": "C<sub>5</sub>H<sub>5</sub>ClS",
        "Molecular Mass": "132.61",
        "Boiling Point": "53-54 °C @ Press: 15 Torr"
    }
}