{
    "cas_no": "300-57-2",
    "key_name": "Allylbenzene",
    "cn_name": "烯丙苯;3-苯基丙烯;苯丙烯;丙烯基苯;",
    "alternate_name": "Benzene, 2-propen-1-yl-;Benzene, allyl-;Benzene, 2-propenyl-;2-Propen-1-ylbenzene;Allylbenzene;1-Propene, 3-phenyl-;3-Phenylpropene;2-Propenylbenzene;3-Phenyl-1-propene;1-Phenyl-2-propene;1-Benzylethene;NSC 18609",
    "duplicated_cas_no": "128961-80-8;57807-91-7",
    "SMILES": "C(C=C)C1=CC=CC=C1",
    "meta_data": {
        "InChI": "InChI=1S/C9H10/c1-2-6-9-7-4-3-5-8-9/h2-5,7-8H,1,6H2",
        "InChIKey": null,
        "Canonical SMILES": "C=CCC=1C=CC=CC1",
        "Molecular Formula": "C<sub>9</sub>H<sub>10</sub>",
        "Molecular Mass": "118.18",
        "Boiling Point": "156 °C",
        "Melting Point": "-40 °C",
        "Density": "0.893 g/cm³ @ Temp: 20 °C"
    }
}