{
    "cas_no": "14036-06-7",
    "key_name": "Methanol, 1,1-diethoxy-, 1-acetate",
    "cn_name": "乙酸二乙氧基甲酯;乙酸(二乙氧基)甲酯;",
    "alternate_name": "Methanol, 1,1-diethoxy-, 1-acetate;Acetic acid, anhydride with diethyl orthoformate;Methanol, diethoxy-, acetate;Orthoformic acid, diethyl ester, anhydride with acetic acid;Diethoxymethyl acetate;NSC 158267",
    "duplicated_cas_no": "",
    "SMILES": "C(OC(C)=O)(OCC)OCC",
    "meta_data": {
        "InChI": "InChI=1S/C7H14O4/c1-4-9-7(10-5-2)11-6(3)8/h7H,4-5H2,1-3H3",
        "InChIKey": null,
        "Canonical SMILES": "O=C(OC(OCC)OCC)C",
        "Molecular Formula": "C<sub>7</sub>H<sub>14</sub>O<sub>4</sub>",
        "Molecular Mass": "162.18",
        "Boiling Point": "170-172 °C @ Press: 743 Torr"
    }
}