{
    "cas_no": "98-12-4",
    "key_name": "(Trichlorosilyl)cyclohexane",
    "cn_name": "环己基三氯硅烷;",
    "alternate_name": "Cyclohexane, (trichlorosilyl)-;Silane, trichlorocyclohexyl-;(Trichlorosilyl)cyclohexane;Trichlorocyclohexylsilane;Cyclohexyltrichlorosilane",
    "duplicated_cas_no": "",
    "SMILES": "[Si](Cl)(Cl)(Cl)C1CCCCC1",
    "meta_data": {
        "InChI": "InChI=1S/C6H11Cl3Si/c7-10(8,9)6-4-2-1-3-5-6/h6H,1-5H2",
        "InChIKey": null,
        "Canonical SMILES": "Cl[Si](Cl)(Cl)C1CCCCC1",
        "Molecular Formula": "C<sub>6</sub>H<sub>11</sub>Cl<sub>3</sub>Si",
        "Molecular Mass": "217.60",
        "Boiling Point": "90-91 °C @ Press: 10 Torr",
        "Density": "1.222 g/cm³"
    }
}