{
    "cas_no": "58-39-9",
    "key_name": "Perphenazine",
    "cn_name": "奋乃静;",
    "alternate_name": "1-Piperazineethanol, 4-[3-(2-chloro-10<em>H</em>-phenothiazin-10-yl)propyl]-;1-Piperazineethanol, 4-[3-(2-chlorophenothiazin-10-yl)propyl]-;4-[3-(2-Chloro-10<em>H</em>-phenothiazin-10-yl)propyl]-1-piperazineethanol;2-Chloro-10-3-[1-(2-hydroxyethyl)-4-piperazinyl] propyl phenothiazine;2-Chloro-10-[3-[4-(2-hydroxyethyl)piperazin-1-yl]propyl]phenothiazine;Decentan;Etaperazin;Etaperazine;Ethaperazine;Fentazin;1-(2-Hydroxyethyl)-4-[3-(2-chloro-10-phenothiazinyl)propyl]piperazine;γ-[4-(β-Hydroxyethyl)piperazin-1-yl]propyl-2-chlorophenothiazine;Perphenazin;Perphenazine;Trifaron;Trilafon;Trilifan;Chlorperphenazine;Perfenazine;Fentazine duolets;Fentazin syrup;Thilatazin;Tranquisan;Emesinal;Perphenan;PZC;Sch 3940;Triphenot;Chloriprozine;NSC 150866;Perfenil;Mutabom;PZC (tranquilizer);2-[4-[3-(2-Chloro-phenothiazin-10-yl)-propyl]-piperazin-1-yl]-ethanol;2-[4-[3-(2-Chlorophenothiazin-10-yl)propyl]piperazin-1-yl]ethanol;2-[4-[3-(2-Chloro-10<em>H</em>-phenothiazin-10-yl)propyl]piperazin-1-yl]ethan-1-ol;MeSH ID: D010546",
    "duplicated_cas_no": "8055-48-9",
    "SMILES": "C(CCN1CCN(CCO)CC1)N2C=3C(SC=4C2=CC=CC4)=CC=C(Cl)C3",
    "meta_data": {
        "InChI": "InChI=1S/C21H26ClN3OS/c22-17-6-7-21-19(16-17)25(18-4-1-2-5-20(18)27-21)9-3-8-23-10-12-24(13-11-23)14-15-26/h1-2,4-7,16,26H,3,8-15H2",
        "InChIKey": null,
        "Canonical SMILES": "ClC1=CC=C2SC=3C=CC=CC3N(C2=C1)CCCN4CCN(CCO)CC4",
        "Molecular Formula": "C<sub>21</sub>H<sub>26</sub>ClN<sub>3</sub>OS",
        "Molecular Mass": "403.97",
        "Boiling Point": "214-218 °C @ Press: 0.15 Torr",
        "Melting Point": "94-100 °C"
    }
}