{
    "cas_no": "18523-48-3",
    "key_name": "2-Azidoacetic acid",
    "cn_name": null,
    "alternate_name": "Acetic acid, 2-azido-;Acetic acid, azido-;2-Azidoacetic acid;Azidoacetic acid",
    "duplicated_cas_no": "1955499-50-9",
    "SMILES": "C(C(O)=O)N=[N+]=[N-]",
    "meta_data": {
        "InChI": "InChI=1S/C2H3N3O2/c3-5-4-1-2(6)7/h1H2,(H,6,7)",
        "InChIKey": null,
        "Canonical SMILES": "[N-]=[N+]=NCC(=O)O",
        "Molecular Formula": "C<sub>2</sub>H<sub>3</sub>N<sub>3</sub>O<sub>2</sub>",
        "Molecular Mass": "",
        "Boiling Point": "116 °C @ Press: 12 Torr",
        "Melting Point": "16 °C"
    }
}