{
    "cas_no": "94944-70-4",
    "key_name": "1-[5-[(1<em>R</em>,2<em>S</em>,3<em>R</em>)-1,2,3,4-Tetrahydroxybutyl]-1<em>H</em>-imidazol-2-yl]ethanone",
    "cn_name": null,
    "alternate_name": "Ethanone, 1-[5-[(1<em>R</em>,2<em>S</em>,3<em>R</em>)-1,2,3,4-tetrahydroxybutyl]-1<em>H</em>-imidazol-2-yl]-;Ethanone, 1-[4-(1,2,3,4-tetrahydroxybutyl)-1<em>H</em>-imidazol-2-yl]-, [1<em>R</em>-(1<em>R</em>*,2<em>S</em>*,3<em>R</em>*)]-;1-[5-[(1<em>R</em>,2<em>S</em>,3<em>R</em>)-1,2,3,4-Tetrahydroxybutyl]-1<em>H</em>-imidazol-2-yl]ethanone;THI",
    "duplicated_cas_no": "",
    "SMILES": "[C@@H]([C@@H]([C@@H](CO)O)O)(O)C=1NC(C(C)=O)=NC1",
    "meta_data": {
        "InChI": "InChI=1S/C9H14N2O5/c1-4(13)9-10-2-5(11-9)7(15)8(16)6(14)3-12/h2,6-8,12,14-16H,3H2,1H3,(H,10,11)/t6-,7-,8-/m1/s1",
        "InChIKey": null,
        "Canonical SMILES": "O=C(C1=NC=C(N1)C(O)C(O)C(O)CO)C",
        "Molecular Formula": "C<sub>9</sub>H<sub>14</sub>N<sub>2</sub>O<sub>5</sub>",
        "Molecular Mass": "230.22",
        "Melting Point": "233-235 °C"
    }
}