{
    "cas_no": "1192651-80-1",
    "key_name": "1-Butanaminium, <em>N</em>,<em>N</em>,<em>N</em>-tributyl-, (1<em>R</em>,2<em>S</em>,5<em>R</em>)-2-(aminocarbonyl)-7-oxo-1,6-diazabicyclo[3.2.1]oct-6-yl sulfate (1:1)",
    "cn_name": null,
    "alternate_name": "1-Butanaminium, <em>N</em>,<em>N</em>,<em>N</em>-tributyl-, (1<em>R</em>,2<em>S</em>,5<em>R</em>)-2-(aminocarbonyl)-7-oxo-1,6-diazabicyclo[3.2.1]oct-6-yl sulfate (1:1)",
    "duplicated_cas_no": "",
    "SMILES": "C(N)(=O)[C@H]1[N@@]2C(=O)N(OS(=O)(=O)[O-])[C@@](C2)(CC1)[H].[N+](CCCC)(CCCC)(CCCC)CCCC",
    "meta_data": {
        "InChI": "InChI=1S/C16H36N.C7H11N3O6S/c1-5-9-13-17(14-10-6-2,15-11-7-3)16-12-8-4;8-6(11)5-2-1-4-3-9(5)7(12)10(4)16-17(13,14)15/h5-16H2,1-4H3;4-5H,1-3H2,(H2,8,11)(H,13,14,15)/q+1;/p-1/t;4-,5+/m.1/s1",
        "InChIKey": null,
        "Canonical SMILES": "O=C1N(OS(=O)(=O)[O-])C2CN1C(C(=O)N)CC2.CCCC[N+](CCCC)(CCCC)CCCC",
        "Molecular Formula": "C<sub>16</sub>H<sub>36</sub>N.C<sub>7</sub>H<sub>10</sub>N<sub>3</sub>O<sub>6</sub>S",
        "Molecular Mass": "",
        "Melting Point": "180.3-182.4 °C (decomp)"
    }
}