{
    "cas_no": "5405-79-8",
    "key_name": "2,2-Dimethyl-3-hexanone",
    "cn_name": "2,2-二甲基己酮;2,2-二甲基-3-己酮;",
    "alternate_name": "3-Hexanone, 2,2-dimethyl-;2,2-Dimethyl-3-hexanone;<em>tert</em>-Butyl propyl ketone;NSC 5229",
    "duplicated_cas_no": "",
    "SMILES": "C(C(C)(C)C)(CCC)=O",
    "meta_data": {
        "InChI": "InChI=1S/C8H16O/c1-5-6-7(9)8(2,3)4/h5-6H2,1-4H3",
        "InChIKey": null,
        "Canonical SMILES": "O=C(CCC)C(C)(C)C",
        "Molecular Formula": "C<sub>8</sub>H<sub>16</sub>O",
        "Molecular Mass": "128.21",
        "Boiling Point": "147 °C",
        "Density": "0.825 g/cm³ @ Temp: 15 °C"
    }
}