{
    "cas_no": "5299-60-5",
    "key_name": "Ethyl 6-hydroxyhexanoate",
    "cn_name": null,
    "alternate_name": "Hexanoic acid, 6-hydroxy-, ethyl ester;Ethyl 6-hydroxycaproate;Ethyl ε-hydroxycaproate;Ethyl 6-hydroxyhexanoate;5-Ethoxycarbonylpentan-1-ol;6-Hydroxyhexanoic acid ethyl ester;NSC 617304",
    "duplicated_cas_no": "",
    "SMILES": "C(CCCCCO)(OCC)=O",
    "meta_data": {
        "InChI": "InChI=1S/C8H16O3/c1-2-11-8(10)6-4-3-5-7-9/h9H,2-7H2,1H3",
        "InChIKey": null,
        "Canonical SMILES": "O=C(OCC)CCCCCO",
        "Molecular Formula": "C<sub>8</sub>H<sub>16</sub>O<sub>3</sub>",
        "Molecular Mass": "160.21",
        "Boiling Point": "134 °C @ Press: 15 Torr"
    }
}