{
    "cas_no": "96107-95-8",
    "key_name": "Calix[6]arene",
    "cn_name": null,
    "alternate_name": "Heptacyclo[31.3.1.1<sup>3,7</sup>.1<sup>9,13</sup>.1<sup>15,19</sup>.1<sup>21,25</sup>.1<sup>27,31</sup>]dotetraconta-1(37),3,5,7(42),9,11,13(41),15,17,19(40),21,23,25(39),27,29,31(38),33,35-octadecaene-37,38,39,40,41,42-hexol;<em>p</em>-H-Calix[6]arene;Calix[6]arenehexol;Calix[6]arene;H 0713",
    "duplicated_cas_no": "",
    "SMILES": "OC=1C=2CC=3C(O)=C(CC=4C(O)=C(CC=5C(O)=C(CC6=C(O)C(CC7=C(O)C(CC1C=CC2)=CC=C7)=CC=C6)C=CC5)C=CC4)C=CC3",
    "meta_data": {
        "InChI": "InChI=1S/C42H36O6/c43-37-25-7-1-8-26(37)20-28-10-3-12-30(39(28)45)22-32-14-5-16-34(41(32)47)24-36-18-6-17-35(42(36)48)23-33-15-4-13-31(40(33)46)21-29-11-2-9-27(19-25)38(29)44/h1-18,43-48H,19-24H2",
        "InChIKey": null,
        "Canonical SMILES": "OC=1C2=CC=CC1CC3=CC=CC(=C3O)CC4=CC=CC(=C4O)CC=5C=CC=C(C5O)CC=6C=CC=C(C6O)CC=7C=CC=C(C7O)C2",
        "Molecular Formula": "C<sub>42</sub>H<sub>36</sub>O<sub>6</sub>",
        "Molecular Mass": "636.73",
        "Melting Point": "420 °C"
    }
}