{
    "cas_no": "94-34-8",
    "key_name": "<em>N</em>-(2-Cyanoethyl)-<em>N</em>-methylaniline",
    "cn_name": "N-甲基-N-氰乙基苯胺;",
    "alternate_name": "Propanenitrile, 3-(methylphenylamino)-;Propionitrile, 3-(<em>N</em>-methylanilino)-;3-(Methylphenylamino)propanenitrile;<em>N</em>-β-Cyanoethyl-<em>N</em>-methylaniline;β-(<em>N</em>-Methylanilino)propionitrile;<em>N</em>-Methyl-<em>N</em>-(2-cyanoethyl)aniline;<em>N</em>-(2-Cyanoethyl)-<em>N</em>-methylaniline;NSC 73689;NSC 91616",
    "duplicated_cas_no": "",
    "SMILES": "N(CCC#N)(C)C1=CC=CC=C1",
    "meta_data": {
        "InChI": "InChI=1S/C10H12N2/c1-12(9-5-8-11)10-6-3-2-4-7-10/h2-4,6-7H,5,9H2,1H3",
        "InChIKey": null,
        "Canonical SMILES": "N#CCCN(C=1C=CC=CC1)C",
        "Molecular Formula": "C<sub>10</sub>H<sub>12</sub>N<sub>2</sub>",
        "Molecular Mass": "160.22",
        "Boiling Point": "186 °C @ Press: 23 Torr"
    }
}