{
    "cas_no": "51760-23-7",
    "key_name": "1-Bromo-3,5-bis(bromomethyl)benzene",
    "cn_name": null,
    "alternate_name": "Benzene, 1-bromo-3,5-bis(bromomethyl)-;1-Bromo-3,5-bis(bromomethyl)benzene;3,5-Bis(bromomethyl)bromobenzene;5,α,α′-Tribromo-<em>m</em>-xylene;5-Bromo-1,3-bis(bromomethyl)benzene;3,5-Bis(bromomethyl)phenyl bromide",
    "duplicated_cas_no": "",
    "SMILES": "C(Br)C1=CC(CBr)=CC(Br)=C1",
    "meta_data": {
        "InChI": "InChI=1S/C8H7Br3/c9-4-6-1-7(5-10)3-8(11)2-6/h1-3H,4-5H2",
        "InChIKey": null,
        "Canonical SMILES": "BrC=1C=C(C=C(C1)CBr)CBr",
        "Molecular Formula": "C<sub>8</sub>H<sub>7</sub>Br<sub>3</sub>",
        "Molecular Mass": "342.85",
        "Melting Point": "97.5-99.0 °C"
    }
}