{
    "cas_no": "617-31-2",
    "key_name": "(±)-2-Hydroxypentanoic acid",
    "cn_name": null,
    "alternate_name": "Pentanoic acid, 2-hydroxy-;Valeric acid, 2-hydroxy-;2-Hydroxypentanoic acid;α-Hydroxy-<em>n</em>-valeric acid;α-Hydroxyvaleric acid;α-Hydroxypentanoic acid;2-Hydroxyvaleric acid;(±)-α-Hydroxyvaleric acid;<span class=\"text-smallcaps\">DL</span>-α-Hydroxyvaleric acid;<span class=\"text-smallcaps\">DL</span>-2-Hydroxypentanoic acid;(±)-2-Hydroxypentanoic acid;<span class=\"text-smallcaps\">DL</span>-2-Hydroxyvaleric acid;(±)-2-Hydroxy-<em>n</em>-valeric acid;(±)-2-Hydroxyvaleric acid;NSC 67957",
    "duplicated_cas_no": "6450-97-1",
    "SMILES": "C(CCC)(C(O)=O)O",
    "meta_data": {
        "InChI": "InChI=1S/C5H10O3/c1-2-3-4(6)5(7)8/h4,6H,2-3H2,1H3,(H,7,8)",
        "InChIKey": null,
        "Canonical SMILES": "O=C(O)C(O)CCC",
        "Molecular Formula": "C<sub>5</sub>H<sub>10</sub>O<sub>3</sub>",
        "Molecular Mass": "118.13",
        "Melting Point": "34 °C"
    }
}