{
    "cas_no": "96574-01-5",
    "key_name": "Salvianolic acid",
    "cn_name": "丹酚酸A;(2R)-3-(3,4-二羟基苯基)-2-[(E)-3-[2-[(E)-2-(3,4-二羟基苯基)乙烯基]-3,4-二羟基苯基]丙-2-烯酰];",
    "alternate_name": "Benzenepropanoic acid, α-[[(2<em>E</em>)-3-[2-[(1<em>E</em>)-2-(3,4-dihydroxyphenyl)ethenyl]-3,4-dihydroxyphenyl]-1-oxo-2-propen-1-yl]oxy]-3,4-dihydroxy-, (α<em>R</em>)-;Benzenepropanoic acid, α-[[3-[2-[2-(3,4-dihydroxyphenyl)ethenyl]-3,4-dihydroxyphenyl]-1-oxo-2-propenyl]oxy]-3,4-dihydroxy-, [<em>R</em>-(<em>E</em>,<em>E</em>)]-;Benzenepropanoic acid, α-[[(2<em>E</em>)-3-[2-[(1<em>E</em>)-2-(3,4-dihydroxyphenyl)ethenyl]-3,4-dihydroxyphenyl]-1-oxo-2-propenyl]oxy]-3,4-dihydroxy-, (α<em>R</em>)-;(α<em>R</em>)-α-[[(2<em>E</em>)-3-[2-[(1<em>E</em>)-2-(3,4-Dihydroxyphenyl)ethenyl]-3,4-dihydroxyphenyl]-1-oxo-2-propen-1-yl]oxy]-3,4-dihydroxybenzenepropanoic acid;(+)-Salvianolic acid A;Salvianolic acid A;Dan phenolic acid A;Salvianolic acid",
    "duplicated_cas_no": "",
    "SMILES": "C(=C/C1=CC(O)=C(O)C=C1)\\C2=C(/C=C/C(O[C@H](CC3=CC(O)=C(O)C=C3)C(O)=O)=O)C=CC(O)=C2O",
    "meta_data": {
        "InChI": "InChI=1S/C26H22O10/c27-18-7-2-14(11-21(18)30)1-6-17-16(4-9-20(29)25(17)33)5-10-24(32)36-23(26(34)35)13-15-3-8-19(28)22(31)12-15/h1-12,23,27-31,33H,13H2,(H,34,35)/b6-1+,10-5+/t23-/m1/s1",
        "InChIKey": null,
        "Canonical SMILES": "O=C(O)C(OC(=O)C=CC1=CC=C(O)C(O)=C1C=CC2=CC=C(O)C(O)=C2)CC3=CC=C(O)C(O)=C3",
        "Molecular Formula": "C<sub>26</sub>H<sub>22</sub>O<sub>10</sub>",
        "Molecular Mass": "494.45",
        "Melting Point": "156-157 °C"
    }
}