{
    "cas_no": "51235-04-2",
    "key_name": "Hexazinone",
    "cn_name": "环嗪酮;3-环己基-6-二甲氨基-1-甲基-1,3,5-三嗪-2,4-二酮;",
    "alternate_name": "1,3,5-Triazine-2,4(1<em>H</em>,3<em>H</em>)-dione, 3-cyclohexyl-6-(dimethylamino)-1-methyl-;3-Cyclohexyl-6-(dimethylamino)-1-methyl-1,3,5-triazine-2,4(1<em>H</em>,3<em>H</em>)-dione;Velpar;DPX 3674;3-Cyclohexyl-6-(dimethylamino)-1-methyl-<em>s</em>-triazine-2,4(1<em>H</em>,3<em>H</em>)-dione;Hexazinone;Velpar L;Pronone;Pronone 10G;Hexaxinon",
    "duplicated_cas_no": "",
    "SMILES": "O=C1N(C(=O)N=C(N(C)C)N1C)C2CCCCC2",
    "meta_data": {
        "InChI": "InChI=1S/C12H20N4O2/c1-14(2)10-13-11(17)16(12(18)15(10)3)9-7-5-4-6-8-9/h9H,4-8H2,1-3H3",
        "InChIKey": null,
        "Canonical SMILES": "O=C1N=C(N(C(=O)N1C2CCCCC2)C)N(C)C",
        "Molecular Formula": "C<sub>12</sub>H<sub>20</sub>N<sub>4</sub>O<sub>2</sub>",
        "Molecular Mass": "252.31",
        "Melting Point": "115-117 °C",
        "Density": "1.25 g/cm³"
    }
}