{
    "cas_no": "10277-43-7",
    "key_name": "Lanthanum nitrate hexahydrate",
    "cn_name": "硝酸镧六水合物;硝酸镧(六水);",
    "alternate_name": "Nitric acid, lanthanum(3+) salt, hydrate (3:1:6);Nitric acid, lanthanum(3+) salt, hexahydrate;Lanthanum trinitrate hexahydrate;Lanthanum(3+) nitrate hexahydrate;Lanthanum nitrate (La(NO<sub>3</sub>)<sub>3</sub>), hexahydrate;Lanthanum nitrate hexahydrate;Lanthanum(III) nitrate hexahydrate;Nitric acid, lanthanum(3+) salt, hydrate (3:1:18)",
    "duplicated_cas_no": "1352749-42-8;2112767-85-6;2374821-08-4;2551294-75-6;2665663-95-4",
    "SMILES": "N(=O)(=O)O.[La].O",
    "meta_data": {
        "InChI": "InChI=1S/La.HNO3.2H2O/c;2-1(3)4;;/h;(H,2,3,4);2*1H2",
        "InChIKey": null,
        "Canonical SMILES": "[La].O=N(=O)O.O",
        "Molecular Formula": "H<sub>2</sub>O.<sup>1</sup>/<sub>2</sub>HNO<sub>3</sub>.<sup>1</sup>/<sub>6</sub>La",
        "Molecular Mass": "",
        "Melting Point": "65 °C"
    }
}