{
    "cas_no": "5673-07-4",
    "key_name": "2,6-Dimethoxytoluene",
    "cn_name": "2,6-二甲氧基甲苯;",
    "alternate_name": "Benzene, 1,3-dimethoxy-2-methyl-;Toluene, 2,6-dimethoxy-;1,3-Dimethoxy-2-methylbenzene;2-Methylresorcinol dimethyl ether;2,6-Dimethoxytoluene;2-Methyl-1,3-dimethoxybenzene;NSC 62674",
    "duplicated_cas_no": "",
    "SMILES": "O(C)C1=C(C)C(OC)=CC=C1",
    "meta_data": {
        "InChI": "InChI=1S/C9H12O2/c1-7-8(10-2)5-4-6-9(7)11-3/h4-6H,1-3H3",
        "InChIKey": null,
        "Canonical SMILES": "O(C1=CC=CC(OC)=C1C)C",
        "Molecular Formula": "C<sub>9</sub>H<sub>12</sub>O<sub>2</sub>",
        "Molecular Mass": "152.19",
        "Boiling Point": "97-99 °C @ Press: 15 Torr",
        "Melting Point": "39-41 °C"
    }
}