{
    "cas_no": "1207-72-3",
    "key_name": "10-Methylphenothiazine",
    "cn_name": "N-甲基吩噻嗪;10-甲基吩噻嗪;",
    "alternate_name": "10<em>H</em>-Phenothiazine, 10-methyl-;Phenothiazine, 10-methyl-;10-Methyl-10<em>H</em>-phenothiazine;<em>N</em>-Methylphenothiazine;10-Methylphenothiazine;NSC 120;J 3-56",
    "duplicated_cas_no": "",
    "SMILES": "CN1C=2C(SC=3C1=CC=CC3)=CC=CC2",
    "meta_data": {
        "InChI": "InChI=1S/C13H11NS/c1-14-10-6-2-4-8-12(10)15-13-9-5-3-7-11(13)14/h2-9H,1H3",
        "InChIKey": null,
        "Canonical SMILES": "S1C=2C=CC=CC2N(C=3C=CC=CC13)C",
        "Molecular Formula": "C<sub>13</sub>H<sub>11</sub>NS",
        "Molecular Mass": "213.30",
        "Melting Point": "99.5 °C"
    }
}