{
    "cas_no": "14370-74-2",
    "key_name": "Ethyl 3-hydroxy-1<em>H</em>-indole-2-carboxylate",
    "cn_name": null,
    "alternate_name": "1<em>H</em>-Indole-2-carboxylic acid, 3-hydroxy-, ethyl ester;Indole-2-carboxylic acid, 3-hydroxy-, ethyl ester;Indoxylic acid, ethyl ester;Ethyl 3-hydroxy-1<em>H</em>-indole-2-carboxylate;3-Hydroxy-1<em>H</em>-indole-2-carboxylic acid ethyl ester",
    "duplicated_cas_no": "",
    "SMILES": "OC=1C=2C(NC1C(OCC)=O)=CC=CC2",
    "meta_data": {
        "InChI": "InChI=1S/C11H11NO3/c1-2-15-11(14)9-10(13)7-5-3-4-6-8(7)12-9/h3-6,12-13H,2H2,1H3",
        "InChIKey": null,
        "Canonical SMILES": "O=C(OCC)C=1NC=2C=CC=CC2C1O",
        "Molecular Formula": "C<sub>11</sub>H<sub>11</sub>NO<sub>3</sub>",
        "Molecular Mass": "205.21",
        "Melting Point": "116 °C"
    }
}