{
    "cas_no": "28822-73-3",
    "key_name": "(±)-3,4-Dihydroxyphenylglycol",
    "cn_name": null,
    "alternate_name": "1,2-Benzenediol, 4-(1,2-dihydroxyethyl)-;1,2-Ethanediol, 1-(3,4-dihydroxyphenyl)-, (±)-;1,2-Benzenediol, 4-(1,2-dihydroxyethyl)-, (±)-;4-(1,2-Dihydroxyethyl)-1,2-benzenediol;<span class=\"text-smallcaps\">DL</span>-3,4-Dihydroxyphenylglycol;(±)-3,4-Dihydroxyphenylglycol;3,4-Dihydroxyphenethyl glycol;(3,4-Dihydroxyphenyl)ethylene glycol;Ba 2775;1-(3,4-Dihydroxyphenyl)-1,2-ethanediol;3,4-Dihydroxyphenylethyl glycol;DOPEG;DHPG;NSC 92532;3,4-Dihydroxyphenylglycol",
    "duplicated_cas_no": "3343-19-9;189257-41-8;202005-01-4",
    "SMILES": "C(CO)(O)C1=CC(O)=C(O)C=C1",
    "meta_data": {
        "InChI": "InChI=1S/C8H10O4/c9-4-8(12)5-1-2-6(10)7(11)3-5/h1-3,8-12H,4H2",
        "InChIKey": null,
        "Canonical SMILES": "OC1=CC=C(C=C1O)C(O)CO",
        "Molecular Formula": "C<sub>8</sub>H<sub>10</sub>O<sub>4</sub>",
        "Molecular Mass": "170.16",
        "Melting Point": "128-129 °C"
    }
}