{
    "cas_no": "7241-98-7",
    "key_name": "Aflatoxin G<sub>2</sub>",
    "cn_name": "黄曲霉素G2;",
    "alternate_name": "1<em>H</em>,12<em>H</em>-Furo[3′,2′:4,5]furo[2,3-<em>h</em>]pyrano[3,4-<em>c</em>][1]benzopyran-1,12-dione, 3,4,7a,9,10,10a-hexahydro-5-methoxy-, (7a<em>R</em>,10a<em>S</em>)-;Aflatoxin G<sub>2</sub>;1<em>H</em>,12<em>H</em>-Furo[3′,2′:4,5]furo[2,3-<em>h</em>]pyrano[3,4-<em>c</em>][1]benzopyran-1,12-dione, 3,4,7aα,9,10,10aα-hexahydro-5-methoxy-;1<em>H</em>,12<em>H</em>-Furo[3′,2′:4,5]furo[2,3-<em>h</em>]pyrano[3,4-<em>c</em>][1]benzopyran-1,12-dione, 3,4,7a,9,10,10a-hexahydro-5-methoxy-, (7a<em>R</em>-<em>cis</em>)-;(7a<em>R</em>,10a<em>S</em>)-3,4,7a,9,10,10a-Hexahydro-5-methoxy-1<em>H</em>,12<em>H</em>-furo[3′,2′:4,5]furo[2,3-<em>h</em>]pyrano[3,4-<em>c</em>][1]benzopyran-1,12-dione;Dihydroaflatoxin G<sub>1</sub>",
    "duplicated_cas_no": "",
    "SMILES": "O(C)C=1C2=C(C3=C(O[C@@]4([C@]3(CCO4)[H])[H])C1)OC(=O)C5=C2CCOC5=O",
    "meta_data": {
        "InChI": "InChI=1S/C17H14O7/c1-20-9-6-10-12(8-3-5-22-17(8)23-10)14-11(9)7-2-4-21-15(18)13(7)16(19)24-14/h6,8,17H,2-5H2,1H3/t8-,17+/m0/s1",
        "InChIKey": null,
        "Canonical SMILES": "O=C1OC2=C(C(OC)=CC=3OC4OCCC4C32)C5=C1C(=O)OCC5",
        "Molecular Formula": "C<sub>17</sub>H<sub>14</sub>O<sub>7</sub>",
        "Molecular Mass": "330.29",
        "Melting Point": "237-240 °C"
    }
}