{
    "cas_no": "5334-41-8",
    "key_name": "5-Amino-1-methyl-1<em>H</em>-pyrazole-4-carbonitrile",
    "cn_name": "1-甲基-4-氰基-5-氨基-1,2-吡唑;",
    "alternate_name": "1<em>H</em>-Pyrazole-4-carbonitrile, 5-amino-1-methyl-;Pyrazole-4-carbonitrile, 5-amino-1-methyl-;5-Amino-1-methyl-1<em>H</em>-pyrazole-4-carbonitrile;5-Amino-1-methyl-4-cyanopyrazole;5-Amino-4-cyano-1-methylpyrazole;1-Methyl-4-cyano-5-aminopyrazole;5-Amino-4-cyano-1-methyl-1<em>H</em>-pyrazole;NSC 102022;NSC 1412;5-Amino-1-methylpyrazole-4-carbonitrile;1-Methyl-5-amino-4-cyanopyrazole",
    "duplicated_cas_no": "",
    "SMILES": "C(#N)C1=C(N)N(C)N=C1",
    "meta_data": {
        "InChI": "InChI=1S/C5H6N4/c1-9-5(7)4(2-6)3-8-9/h3H,7H2,1H3",
        "InChIKey": null,
        "Canonical SMILES": "N#CC=1C=NN(C1N)C",
        "Molecular Formula": "C<sub>5</sub>H<sub>6</sub>N<sub>4</sub>",
        "Molecular Mass": "122.13",
        "Melting Point": "222-223 °C"
    }
}