{
    "cas_no": "123-78-4",
    "key_name": "Sphingosine",
    "cn_name": "D-赤型神经胺;D-鞘氨醇;",
    "alternate_name": "4-Octadecene-1,3-diol, 2-amino-, (2<em>S</em>,3<em>R</em>,4<em>E</em>)-;4-Octadecene-1,3-diol, 2-amino-, (<em>E</em>)-<span class=\"text-smallcaps\">D</span>-<em>erythro</em>-;4-Octadecene-1,3-diol, 2-amino-, [<em>R</em>-[<em>R</em>*,<em>S</em>*-(<em>E</em>)]]-;(2<em>S</em>,3<em>R</em>,4<em>E</em>)-2-Amino-4-octadecene-1,3-diol;Erythrosphingosine;<span class=\"text-smallcaps\">D</span>-<em>erythro</em>-Sphingosine;<em>erythro</em>-C<sub>18</sub>-Sphingosine;<em>C</em><sub>18</sub>-Sphingosine;4-Sphingenine;Sphingenine;<span class=\"text-smallcaps\">D</span>-Sphingosine;<em>erythro</em>-4-Sphingenine;<span class=\"text-smallcaps\">D</span>-(+)-<em>erythro</em>-4-<em>trans</em>-Sphingenine;4-<em>trans</em>-Sphingenine;<em>trans</em>-4-Sphingenine;Sphingosine;<span class=\"text-smallcaps\">D</span>-<em>erythro</em>-C<sub>18</sub>-Sphingosine;(4<em>E</em>)-Sphingenine;(-)-<span class=\"text-smallcaps\">D</span>-<em>erythro</em>-Sphingosine;(2<em>S</em>,3<em>R</em>)-Sphingosine;(-)-Sphingosine;MeSH ID: D013110",
    "duplicated_cas_no": "45261-75-4",
    "SMILES": "C(=C/CCCCCCCCCCCCC)\\[C@H]([C@H](CO)N)O",
    "meta_data": {
        "InChI": "InChI=1S/C18H37NO2/c1-2-3-4-5-6-7-8-9-10-11-12-13-14-15-18(21)17(19)16-20/h14-15,17-18,20-21H,2-13,16,19H2,1H3/b15-14+/t17-,18+/m0/s1",
        "InChIKey": null,
        "Canonical SMILES": "OCC(N)C(O)C=CCCCCCCCCCCCCC",
        "Molecular Formula": "C<sub>18</sub>H<sub>37</sub>NO<sub>2</sub>",
        "Molecular Mass": "299.49",
        "Melting Point": "67 °C"
    }
}