{
    "cas_no": "766-77-8",
    "key_name": "Dimethylphenylsilane",
    "cn_name": null,
    "alternate_name": "Benzene, (dimethylsilyl)-;Silane, dimethylphenyl-;(Dimethylsilyl)benzene;Phenyldimethylsilane;Dimethylphenylsilane;Dimethylphenylhydrosilane;SIP 6729;LS 2010",
    "duplicated_cas_no": "",
    "SMILES": "[SiH](C)(C)C1=CC=CC=C1",
    "meta_data": {
        "InChI": "InChI=1S/C8H12Si/c1-9(2)8-6-4-3-5-7-8/h3-7,9H,1-2H3",
        "InChIKey": null,
        "Canonical SMILES": "C=1C=CC(=CC1)[SiH](C)C",
        "Molecular Formula": "C<sub>8</sub>H<sub>12</sub>Si",
        "Molecular Mass": "136.27",
        "Boiling Point": "156.5 °C",
        "Melting Point": "-124 °C",
        "Density": "0.889 g/cm³"
    }
}