{
    "cas_no": "56990-02-4",
    "key_name": "3,5-Dibromobenzaldehyde",
    "cn_name": "3,5-二溴苯甲醛;",
    "alternate_name": "Benzaldehyde, 3,5-dibromo-;3,5-Dibromobenzaldehyde",
    "duplicated_cas_no": "",
    "SMILES": "C(=O)C1=CC(Br)=CC(Br)=C1",
    "meta_data": {
        "InChI": "InChI=1S/C7H4Br2O/c8-6-1-5(4-10)2-7(9)3-6/h1-4H",
        "InChIKey": null,
        "Canonical SMILES": "O=CC=1C=C(Br)C=C(Br)C1",
        "Molecular Formula": "C<sub>7</sub>H<sub>4</sub>Br<sub>2</sub>O",
        "Molecular Mass": "263.91",
        "Melting Point": "90 °C"
    }
}