{
    "cas_no": "594-65-0",
    "key_name": "Trichloroacetamide",
    "cn_name": "2,2,2-三氯乙酰胺;",
    "alternate_name": "Acetamide, 2,2,2-trichloro-;2,2,2-Trichloroacetamide;Trichloroacetamide;α,α,α-Trichloroacetamide;NSC 16599;Trichloroacetamidate",
    "duplicated_cas_no": "",
    "SMILES": "C(C(N)=O)(Cl)(Cl)Cl",
    "meta_data": {
        "InChI": "InChI=1S/C2H2Cl3NO/c3-2(4,5)1(6)7/h(H2,6,7)",
        "InChIKey": null,
        "Canonical SMILES": "O=C(N)C(Cl)(Cl)Cl",
        "Molecular Formula": "C<sub>2</sub>H<sub>2</sub>Cl<sub>3</sub>NO",
        "Molecular Mass": "162.40",
        "Boiling Point": "240 °C",
        "Melting Point": "142 °C"
    }
}