{
    "cas_no": "18664-39-6",
    "key_name": "3-(4-Cyanophenyl)-2-propenoic acid",
    "cn_name": "4-氰基肉桂酸;3-(4-氰基苯基)-2-丙烯酸;",
    "alternate_name": "2-Propenoic acid, 3-(4-cyanophenyl)-;Cinnamic acid, <em>p</em>-cyano-;3-(4-Cyanophenyl)-2-propenoic acid;4-Cyanocinnamic acid;<em>p</em>-Cyanocinnamic acid;NSC 134574",
    "duplicated_cas_no": "",
    "SMILES": "C(=CC(O)=O)C1=CC=C(C#N)C=C1",
    "meta_data": {
        "InChI": "InChI=1S/C10H7NO2/c11-7-9-3-1-8(2-4-9)5-6-10(12)13/h1-6H,(H,12,13)",
        "InChIKey": null,
        "Canonical SMILES": "N#CC1=CC=C(C=CC(=O)O)C=C1",
        "Molecular Formula": "C<sub>10</sub>H<sub>7</sub>NO<sub>2</sub>",
        "Molecular Mass": "173.17",
        "Melting Point": "254 °C"
    }
}