{
    "cas_no": "28443-50-7",
    "key_name": "2-Amino-5-chlorophenol",
    "cn_name": "2-氨基-5-氯苯酚;2-氨基-5-氯酚;",
    "alternate_name": "Phenol, 2-amino-5-chloro-;2-Amino-5-chlorophenol;4-Chloro-2-hydroxyaniline;5-Chloro-2-aminophenol;3-Chloro-6-aminophenol",
    "duplicated_cas_no": "",
    "SMILES": "OC1=C(N)C=CC(Cl)=C1",
    "meta_data": {
        "InChI": "InChI=1S/C6H6ClNO/c7-4-1-2-5(8)6(9)3-4/h1-3,9H,8H2",
        "InChIKey": null,
        "Canonical SMILES": "ClC1=CC=C(N)C(O)=C1",
        "Molecular Formula": "C<sub>6</sub>H<sub>6</sub>ClNO",
        "Molecular Mass": "143.57",
        "Melting Point": "153-154 °C"
    }
}