{
    "cas_no": "5401-62-7",
    "key_name": "1,2-Dibromocyclohexane",
    "cn_name": null,
    "alternate_name": "Cyclohexane, 1,2-dibromo-;1,2-Dibromocyclohexane;NSC 1239",
    "duplicated_cas_no": "",
    "SMILES": "BrC1C(Br)CCCC1",
    "meta_data": {
        "InChI": "InChI=1S/C6H10Br2/c7-5-3-1-2-4-6(5)8/h5-6H,1-4H2",
        "InChIKey": null,
        "Canonical SMILES": "BrC1CCCCC1Br",
        "Molecular Formula": "C<sub>6</sub>H<sub>10</sub>Br<sub>2</sub>",
        "Molecular Mass": "241.95",
        "Boiling Point": "101-102 °C @ Press: 13 Torr",
        "Melting Point": "163.5-164 °C (decomp)",
        "Density": "1.7601 g/cm³ @ Temp: 22.25 °C"
    }
}