{
    "cas_no": "19829-74-4",
    "key_name": "4,6-Dihydroxyisophthalic acid",
    "cn_name": null,
    "alternate_name": "1,3-Benzenedicarboxylic acid, 4,6-dihydroxy-;Isophthalic acid, 4,6-dihydroxy-;4,6-Dihydroxy-1,3-benzenedicarboxylic acid;Resorcinol-4,6-dicarboxylic acid;4,6-Dihydroxyisophthalic acid",
    "duplicated_cas_no": "",
    "SMILES": "C(O)(=O)C1=CC(C(O)=O)=C(O)C=C1O",
    "meta_data": {
        "InChI": "InChI=1S/C8H6O6/c9-5-2-6(10)4(8(13)14)1-3(5)7(11)12/h1-2,9-10H,(H,11,12)(H,13,14)",
        "InChIKey": null,
        "Canonical SMILES": "O=C(O)C=1C=C(C(=O)O)C(O)=CC1O",
        "Molecular Formula": "C<sub>8</sub>H<sub>6</sub>O<sub>6</sub>",
        "Molecular Mass": "198.13",
        "Melting Point": "312 °C"
    }
}