{
    "cas_no": "623-17-6",
    "key_name": "Furfuryl acetate",
    "cn_name": "乙酸糠酯;2-呋喃基甲醇乙酸酯;",
    "alternate_name": "2-Furanmethanol, 2-acetate;Furfuryl alcohol, acetate;2-Furanmethanol, acetate;Furfuryl acetate;Acetic acid furfuryl ester;2-(Acetoxymethyl)furan;2-Furanmethyl acetate;2-Furylmethyl acetate;NSC 5585;(Furan-2-yl)methyl acetate",
    "duplicated_cas_no": "",
    "SMILES": "C(OC(C)=O)C1=CC=CO1",
    "meta_data": {
        "InChI": "InChI=1S/C7H8O3/c1-6(8)10-5-7-3-2-4-9-7/h2-4H,5H2,1H3",
        "InChIKey": null,
        "Canonical SMILES": "O=C(OCC=1OC=CC1)C",
        "Molecular Formula": "C<sub>7</sub>H<sub>8</sub>O<sub>3</sub>",
        "Molecular Mass": "140.14",
        "Boiling Point": "179 °C"
    }
}