{
    "cas_no": "29427-69-8",
    "key_name": "3-Oxo-1-indancarboxylic acid",
    "cn_name": "3-羰基-1-茚酸;",
    "alternate_name": "1<em>H</em>-Indene-1-carboxylic acid, 2,3-dihydro-3-oxo-;1-Indancarboxylic acid, 3-oxo-;2,3-Dihydro-3-oxo-1<em>H</em>-indene-1-carboxylic acid;3-Oxo-1-indancarboxylic acid;(±)-2,3-Dihydro-3-oxo-1<em>H</em>-indene-1-carboxylic acid;(<em>RS</em>)-1-Carboxy-3-indanone;NSC 225078;3-Oxo-2,3-dihydro-1<em>H</em>-indene-1-carboxylic acid;3-Oxo-1,2-dihydroindene-1-carboxylic acid",
    "duplicated_cas_no": "40452-27-5",
    "SMILES": "C(O)(=O)C1C=2C(C(=O)C1)=CC=CC2",
    "meta_data": {
        "InChI": "InChI=1S/C10H8O3/c11-9-5-8(10(12)13)6-3-1-2-4-7(6)9/h1-4,8H,5H2,(H,12,13)",
        "InChIKey": null,
        "Canonical SMILES": "O=C(O)C1C=2C=CC=CC2C(=O)C1",
        "Molecular Formula": "C<sub>10</sub>H<sub>8</sub>O<sub>3</sub>",
        "Molecular Mass": "176.17",
        "Melting Point": "84 °C"
    }
}