{
    "cas_no": "4426-11-3",
    "key_name": "Cyclobutanecarbonitrile",
    "cn_name": "环丁腈;",
    "alternate_name": "Cyclobutanecarbonitrile;Cyclobutanenitrile;Cyanocyclobutane",
    "duplicated_cas_no": "1800084-87-0",
    "SMILES": "C(#N)C1CCC1",
    "meta_data": {
        "InChI": "InChI=1S/C5H7N/c6-4-5-2-1-3-5/h5H,1-3H2",
        "InChIKey": null,
        "Canonical SMILES": "N#CC1CCC1",
        "Molecular Formula": "C<sub>5</sub>H<sub>7</sub>N",
        "Molecular Mass": "81.12",
        "Boiling Point": "149.6 °C",
        "Density": "0.868 g/cm³ @ Temp: 17 °C"
    }
}