{
    "cas_no": "109-49-9",
    "key_name": "5-Hexen-2-one",
    "cn_name": "5-己烯-2-酮;烯丙基丙酮;",
    "alternate_name": "5-Hexen-2-one;Allylacetone;1-Hexen-5-one;5-Hexen-1-one;5-Oxo-1-hexene;NSC 6973;3-Butenyl methyl ketone",
    "duplicated_cas_no": "",
    "SMILES": "C(C(C)=O)CC=C",
    "meta_data": {
        "InChI": "InChI=1S/C6H10O/c1-3-4-5-6(2)7/h3H,1,4-5H2,2H3",
        "InChIKey": null,
        "Canonical SMILES": "O=C(C)CCC=C",
        "Molecular Formula": "C<sub>6</sub>H<sub>10</sub>O",
        "Molecular Mass": "98.14",
        "Boiling Point": "129.5 °C",
        "Density": "0.856 g/cm³ @ Temp: 20 °C"
    }
}