{
    "cas_no": "123-04-6",
    "key_name": "3-(Chloromethyl)heptane",
    "cn_name": "氯代异辛烷;2-乙基己基氯;3-(氯甲基)庚烷;1-氯-2-乙基己烷;",
    "alternate_name": "Heptane, 3-(chloromethyl)-;3-(Chloromethyl)heptane;2-Ethylhexyl chloride;1-Chloro-2-ethylhexane;NSC 8883",
    "duplicated_cas_no": "128399-83-7",
    "SMILES": "C(CCCC)(CC)CCl",
    "meta_data": {
        "InChI": "InChI=1S/C8H17Cl/c1-3-5-6-8(4-2)7-9/h8H,3-7H2,1-2H3",
        "InChIKey": null,
        "Canonical SMILES": "ClCC(CC)CCCC",
        "Molecular Formula": "C<sub>8</sub>H<sub>17</sub>Cl",
        "Molecular Mass": "148.67",
        "Boiling Point": "172 °C"
    }
}