{
    "cas_no": "6829-22-7",
    "key_name": "Solvent Red 179",
    "cn_name": "溶剂红179;",
    "alternate_name": "14<em>H</em>-Benz[4,5]isoquino[2,1-<em>a</em>]perimidin-14-one;Naphthaloperinone;14<em>H</em>-Perimidino[2,1-<em>a</em>]benz[<em>de</em>]isoquinolin-14-one;C.I. Solvent Red 179;C.I. 564150;Sumiplast Red H 4GR;Solvent Red 179;Macrolex Red E 2G;Kayaset Red A 2G;Plast Red 8370;Sandoplast Red 2G;Amaplast Red RP;Lumaplast Red A 2G;1,8-Naphthaloperinone;KP Plast Red H 2G;14<em>H</em>-Benzo[4,5]isoquino[2,1-<em>a</em>]perimidin-14-one;14<em>H</em>-Benzo[4,5]isoquinolino[2,1-<em>a</em>]perimidin-14-one;Macrolex Red E 2G Gran",
    "duplicated_cas_no": "89106-94-5;162355-06-8;389105-50-4",
    "SMILES": "O=C1N2C(C=3C=4C1=CC=CC4C=CC3)=NC=5C=6C2=CC=CC6C=CC5",
    "meta_data": {
        "InChI": "InChI=1S/C22H12N2O/c25-22-16-10-2-6-13-5-1-9-15(19(13)16)21-23-17-11-3-7-14-8-4-12-18(20(14)17)24(21)22/h1-12H",
        "InChIKey": null,
        "Canonical SMILES": "O=C1C2=CC=CC3=CC=CC(C4=NC5=CC=CC=6C=CC=C(C56)N14)=C32",
        "Molecular Formula": "C<sub>22</sub>H<sub>12</sub>N<sub>2</sub>O",
        "Molecular Mass": "320.34",
        "Melting Point": "253 °C"
    }
}