{
    "cas_no": "605-94-7",
    "key_name": "2,3-Dimethoxy-5-methyl-1,4-benzoquinone",
    "cn_name": "2,3-二甲氧基-5-甲基-1,4-苯醌;2,3-二甲氧基-5-甲基-1,4,-对苯二醌;辅酶Q0;",
    "alternate_name": "2,5-Cyclohexadiene-1,4-dione, 2,3-dimethoxy-5-methyl-;<em>p</em>-Benzoquinone, 2,3-dimethoxy-5-methyl-;2,3-Dimethoxy-5-methyl-2,5-cyclohexadiene-1,4-dione;Coenzyme Q<sub>0</sub>;2,3-Dimethoxy-5-methyl-<em>p</em>-benzoquinone;2,3-Dimethoxy-5-methyl-1,4-benzoquinone;Ubiquinone 0;Ubiquinone Q<sub>0</sub>;CoQ<sub>0</sub>;2-Methyl-4,5-dimethoxy-<em>p</em>-quinone;2,3-Dimethoxy-5-methylbenzoquinone;5,6-Dimethoxy-2-methyl-1,4-benzoquinone;2-Methyl-5,6-dimethoxybenzoquinone;Q<sub>0</sub>;2,3-Dimethoxy-6-methyl-1,4-benzoquinone;2,3-Dimethoxy-6-methyl-<em>p</em>-benzoquinone;2,3-Dimethoxy-5-methylcyclohexa-2,5-diene-1,4-dione",
    "duplicated_cas_no": "",
    "SMILES": "O(C)C1=C(OC)C(=O)C(C)=CC1=O",
    "meta_data": {
        "InChI": "InChI=1S/C9H10O4/c1-5-4-6(10)8(12-2)9(13-3)7(5)11/h4H,1-3H3",
        "InChIKey": null,
        "Canonical SMILES": "O=C1C=C(C(=O)C(OC)=C1OC)C",
        "Molecular Formula": "C<sub>9</sub>H<sub>10</sub>O<sub>4</sub>",
        "Molecular Mass": "182.17",
        "Melting Point": "59-60 °C"
    }
}