{
    "cas_no": "3644-61-9",
    "key_name": "Tolperisone hydrochloride",
    "cn_name": "盐酸托哌酮;脑脉宁;甲苯哌丙酮;4\"-甲基-2-(1-哌啶基甲基)苯丙酮盐酸盐;",
    "alternate_name": "1-Propanone, 2-methyl-1-(4-methylphenyl)-3-(1-piperidinyl)-, hydrochloride (1:1);Propiophenone, 2,4′-dimethyl-3-piperidino-, hydrochloride;1-Propanone, 2-methyl-1-(4-methylphenyl)-3-(1-piperidinyl)-, hydrochloride;Mydocalm;1-Piperidino-2-methyl-3-(4-methylphenyl)propan-3-one hydrochloride;Tolperisone hydrochloride;Muscalm;Midocalm;Tolisartine;N 553;Isocalm;Besnoline;Kineorl;Naismeritin;Minacalm;Atmosgen;Metosomin;Menopatol;Abbsa;Arantoick;2,4′-Dimethyl-3-piperidinopropiophenone hydrochloride;Tolpidol;Tolfree;Biocalm",
    "duplicated_cas_no": "84678-66-0",
    "SMILES": "C(C(CN1CCCCC1)C)(=O)C2=CC=C(C)C=C2.Cl",
    "meta_data": {
        "InChI": "InChI=1S/C16H23NO.ClH/c1-13-6-8-15(9-7-13)16(18)14(2)12-17-10-4-3-5-11-17;/h6-9,14H,3-5,10-12H2,1-2H3;1H",
        "InChIKey": null,
        "Canonical SMILES": "Cl.O=C(C1=CC=C(C=C1)C)C(C)CN2CCCCC2",
        "Molecular Formula": "C<sub>16</sub>H<sub>23</sub>NO.ClH",
        "Molecular Mass": "",
        "Melting Point": "176-177 °C"
    }
}