{
    "cas_no": "452-79-9",
    "key_name": "2-Fluoro-1-iodo-4-methylbenzene",
    "cn_name": "3-氟-4-碘甲苯;",
    "alternate_name": "Benzene, 2-fluoro-1-iodo-4-methyl-;Toluene, 3-fluoro-4-iodo-;2-Fluoro-1-iodo-4-methylbenzene;3-Fluoro-4-iodotoluene",
    "duplicated_cas_no": "",
    "SMILES": "FC1=C(I)C=CC(C)=C1",
    "meta_data": {
        "InChI": "InChI=1S/C7H6FI/c1-5-2-3-7(9)6(8)4-5/h2-4H,1H3",
        "InChIKey": null,
        "Canonical SMILES": "FC1=CC(=CC=C1I)C",
        "Molecular Formula": "C<sub>7</sub>H<sub>6</sub>FI",
        "Molecular Mass": "236.03",
        "Boiling Point": "138-139 °C @ Press: 9 Torr"
    }
}