{
    "cas_no": "81-86-7",
    "key_name": "4-Bromo-1,8-naphthalic anhydride",
    "cn_name": "4-溴-1,8-萘二甲酸酐;",
    "alternate_name": "1<em>H</em>,3<em>H</em>-Naphtho[1,8-<em>cd</em>]pyran-1,3-dione, 6-bromo-;Naphthalic anhydride, 4-bromo-;6-Bromo-1<em>H</em>,3<em>H</em>-naphtho[1,8-<em>cd</em>]pyran-1,3-dione;4-Bromonaphthalic anhydride;4-Bromo-1,8-naphthalenedicarboxylic anhydride;4-Bromo-1,8-naphthalic acid anhydride;4-Bromo-1,8-naphthalic anhydride;4-Bromonaphthalene-1,8-dicarboxylic acid anhydride;4-Bromo-1,8-naphthoic anhydride;4-Bromo-1,8-naphtalic anhydride;8-Bromo-3-oxatricyclo[7.3.1.0 5,13]trideca-1(13),5,7,9,11-pentaene-2,4-dione;6-Bromobenzo[<em>de</em>]isochromene-1,3-dione;4-Bromo-1,8-naphthalene anhydride",
    "duplicated_cas_no": "",
    "SMILES": "O=C1C=2C=3C(C(=O)O1)=CC=CC3C(Br)=CC2",
    "meta_data": {
        "InChI": "InChI=1S/C12H5BrO3/c13-9-5-4-8-10-6(9)2-1-3-7(10)11(14)16-12(8)15/h1-5H",
        "InChIKey": null,
        "Canonical SMILES": "O=C1OC(=O)C2=CC=C(Br)C=3C=CC=C1C23",
        "Molecular Formula": "C<sub>12</sub>H<sub>5</sub>BrO<sub>3</sub>",
        "Molecular Mass": "277.07",
        "Melting Point": "215 °C"
    }
}