{
    "cas_no": "61948-60-5",
    "key_name": "2,4-Dichloro-8-methoxyquinazoline",
    "cn_name": null,
    "alternate_name": "Quinazoline, 2,4-dichloro-8-methoxy-;2,4-Dichloro-8-methoxyquinazoline;8-Methoxy-2,4-dichloroquinazoline",
    "duplicated_cas_no": "",
    "SMILES": "O(C)C=1C2=C(C(Cl)=NC(Cl)=N2)C=CC1",
    "meta_data": {
        "InChI": "InChI=1S/C9H6Cl2N2O/c1-14-6-4-2-3-5-7(6)12-9(11)13-8(5)10/h2-4H,1H3",
        "InChIKey": null,
        "Canonical SMILES": "ClC=1N=C(Cl)C=2C=CC=C(OC)C2N1",
        "Molecular Formula": "C<sub>9</sub>H<sub>6</sub>Cl<sub>2</sub>N<sub>2</sub>O",
        "Molecular Mass": "229.06",
        "Melting Point": "154-156 °C"
    }
}