{
    "cas_no": "937-05-3",
    "key_name": "<em>cis</em>-4-<em>tert</em>-Butylcyclohexanol",
    "cn_name": null,
    "alternate_name": "Cyclohexanol, 4-(1,1-dimethylethyl)-, <em>cis</em>-;Cyclohexanol, 4-<em>tert</em>-butyl-, <em>cis</em>-;<em>cis</em>-4-(1,1-Dimethylethyl)cyclohexanol;<em>cis</em>-4-<em>tert</em>-Butylcyclohexanol;<em>cis</em>-1-<em>tert</em>-Butyl-4-cyclohexanol;<em>cis</em>-<em>p</em>-<em>tert</em>-Butylcyclohexanol;<em>cis</em>-4-<em>tert</em>-Butyl-1-cyclohexanol;4-<em>cis</em>-<em>tert</em>-Butylcyclohexanol",
    "duplicated_cas_no": "",
    "SMILES": "C(C)(C)(C)[C@H]1CC[C@@H](O)CC1",
    "meta_data": {
        "InChI": "InChI=1/C10H20O/c1-10(2,3)8-4-6-9(11)7-5-8/h8-9,11H,4-7H2,1-3H3/t8-,9+",
        "InChIKey": null,
        "Canonical SMILES": "OC1CCC(CC1)C(C)(C)C",
        "Molecular Formula": "C<sub>10</sub>H<sub>20</sub>O",
        "Molecular Mass": "156.27",
        "Melting Point": "79.5-81 °C"
    }
}