{
    "cas_no": "69816-37-1",
    "key_name": "Ethanimidamide, 2-amino-, dihydrobromide",
    "cn_name": "2-氨基乙脒氢溴酸盐;",
    "alternate_name": "Ethanimidamide, 2-amino-, dihydrobromide;Acetamidine, 2-amino-, dihydrobromide;2-Aminoacetamidine dihydrobromide",
    "duplicated_cas_no": "",
    "SMILES": "C(CN)(=N)N.Br",
    "meta_data": {
        "InChI": "InChI=1S/C2H7N3.2BrH/c3-1-2(4)5;;/h1,3H2,(H3,4,5);2*1H",
        "InChIKey": null,
        "Canonical SMILES": "Br.N=C(N)CN",
        "Molecular Formula": "C<sub>2</sub>H<sub>7</sub>N<sub>3</sub>.2BrH",
        "Molecular Mass": "",
        "Melting Point": "220 °C"
    }
}