{
    "cas_no": "1302-74-5",
    "key_name": "Corundum",
    "cn_name": "氧化铝;刚玉;金刚砂;活性氧化铝;矾土;",
    "alternate_name": "Corundum (Al<sub>2</sub>O<sub>3</sub>);Corundum;α-Corundum;Electrocorundum;KO 7;MP 1 (refractory);MP 1;KER 710;KU 5-3;FN 237;KU 10;EKF 100;Dural HT;Dural HT-F 24;Abramant F 36;Abramax F 46;Abramax F 54;Dural F 30;Dural P 120;NK 63;P 240 (mineral);P 320 (mineral);P 400 (mineral);P 800 (mineral);F 280;F 800 (mineral);F 800;P 240;P 320;P 400;P 800;Ceralox APA 0.5;EKF 500;Cristalba CAHPF 240;Volskor;F 280 (mineral);KO 8-59;APA 0.5;EB 99;ZWSK 180;Dermagrain 900;W 20;W 20 (mineral);M 5;M 5 (abrasive);Alodur ZWSK 1T180;Alodur ZWSK 1T200;F 240;BA 95 325F;Sepasil EK-R 220MST;F 220;ZA 90;W 5;W 5 (mineral);EK 1200;W 7;F 014;PPCor-1;HCM-L;CAHPF 240",
    "duplicated_cas_no": "50815-07-1;50815-36-6;96538-41-9",
    "SMILES": "",
    "meta_data": {
        "InChI": "",
        "InChIKey": null,
        "Canonical SMILES": "",
        "Molecular Formula": "Al<sub>2</sub>O<sub>3</sub>",
        "Molecular Mass": "",
        "Melting Point": "2054 °C",
        "Density": "14.05 g/cm³"
    }
}