{
    "cas_no": "1709-59-7",
    "key_name": "4-Amino-<em>N</em>,<em>N</em>-dimethylbenzenesulfonamide",
    "cn_name": "4-氨基-N,N-二甲基苯磺酰胺;",
    "alternate_name": "Benzenesulfonamide, 4-amino-<em>N</em>,<em>N</em>-dimethyl-;Sulfanilamide, <em>N</em><sup>1</sup>,<em>N</em><sup>1</sup>-dimethyl-;4-Amino-<em>N</em>,<em>N</em>-dimethylbenzenesulfonamide;<em>p</em>-Amino-<em>N</em>,<em>N</em>-dimethylbenzenesulfonamide;<em>N</em><sup>1</sup>,<em>N</em><sup>1</sup>-Dimethylsulfanilamide;<em>p</em>-(Dimethylsulfamoyl)aniline;<em>N</em>,<em>N</em>-Dimethylsulfanilamide;4-(Dimethylaminosulfonyl)aniline;4-(<em>N</em>,<em>N</em>-Dimethylsulfamoyl)aniline;[(4-Aminophenyl)sulfonyl]dimethylamine;NSC 110777;<em>N</em>,<em>N</em>-Dimethyl-4-aminobenzenesulfonamide;4-Amino-<em>N</em>,<em>N</em>-dimethylbenzene-1-sulfonamide",
    "duplicated_cas_no": "",
    "SMILES": "S(N(C)C)(=O)(=O)C1=CC=C(N)C=C1",
    "meta_data": {
        "InChI": "InChI=1S/C8H12N2O2S/c1-10(2)13(11,12)8-5-3-7(9)4-6-8/h3-6H,9H2,1-2H3",
        "InChIKey": null,
        "Canonical SMILES": "O=S(=O)(C1=CC=C(N)C=C1)N(C)C",
        "Molecular Formula": "C<sub>8</sub>H<sub>12</sub>N<sub>2</sub>O<sub>2</sub>S",
        "Molecular Mass": "200.26",
        "Melting Point": "168 °C"
    }
}