{
    "cas_no": "84-76-4",
    "key_name": "Dinonyl phthalate",
    "cn_name": "邻苯二甲酸二壬酯;",
    "alternate_name": "1,2-Benzenedicarboxylic acid, 1,2-dinonyl ester;Phthalic acid, dinonyl ester;1,2-Benzenedicarboxylic acid, dinonyl ester;Bisoflex 91;Dinonyl 1,2-benzenedicarboxylate;Dinonyl phthalate;Di-<em>n</em>-nonyl phthalate;Unimoll DN;Bisoflex DNP;Dinonyl <em>o</em>-phthalate;Phthalic anhydride diester with Linevol 9;Synplast 9P-N;1,2-Dinonyl benzene-1,2-dicarboxylate",
    "duplicated_cas_no": "",
    "SMILES": "C(OCCCCCCCCC)(=O)C1=C(C(OCCCCCCCCC)=O)C=CC=C1",
    "meta_data": {
        "InChI": "InChI=1S/C26H42O4/c1-3-5-7-9-11-13-17-21-29-25(27)23-19-15-16-20-24(23)26(28)30-22-18-14-12-10-8-6-4-2/h15-16,19-20H,3-14,17-18,21-22H2,1-2H3",
        "InChIKey": null,
        "Canonical SMILES": "O=C(OCCCCCCCCC)C=1C=CC=CC1C(=O)OCCCCCCCCC",
        "Molecular Formula": "C<sub>26</sub>H<sub>42</sub>O<sub>4</sub>",
        "Molecular Mass": "418.61",
        "Boiling Point": "413 °C",
        "Melting Point": "&lt;25 °C",
        "Density": "0.972 g/cm³ @ Temp: 20 °C"
    }
}