{
    "cas_no": "5183-78-8",
    "key_name": "<em>N</em>-Methylbenzenesulfonamide",
    "cn_name": "N-甲基苯磺酰胺;",
    "alternate_name": "Benzenesulfonamide, <em>N</em>-methyl-;<em>N</em>-Methylbenzenesulfonamide;Dellatol MMA;NSC 15404;<em>N</em>-Methylphenylsulfonamide;<em>N</em>-Benzenesulfonyl-<em>N</em>-methylamine",
    "duplicated_cas_no": "",
    "SMILES": "S(NC)(=O)(=O)C1=CC=CC=C1",
    "meta_data": {
        "InChI": "InChI=1S/C7H9NO2S/c1-8-11(9,10)7-5-3-2-4-6-7/h2-6,8H,1H3",
        "InChIKey": null,
        "Canonical SMILES": "O=S(=O)(NC)C=1C=CC=CC1",
        "Molecular Formula": "C<sub>7</sub>H<sub>9</sub>NO<sub>2</sub>S",
        "Molecular Mass": "171.22",
        "Boiling Point": "165-170 °C @ Press: 30 Torr",
        "Melting Point": "31 °C"
    }
}