{
    "cas_no": "109-61-5",
    "key_name": "Propyl chloroformate",
    "cn_name": "氯甲酸丙酯;氯甲酸正丙酯;",
    "alternate_name": "Carbonochloridic acid, propyl ester;Formic acid, chloro-, propyl ester;Propyl chlorocarbonate;Propyl chloroformate;<em>n</em>-Propyl chloroformate;Propyl carbonochloridate;Chloroformic acid propyl ester;Chloroformic acid <em>n</em>-propyl ester",
    "duplicated_cas_no": "",
    "SMILES": "O(C(Cl)=O)CCC",
    "meta_data": {
        "InChI": "InChI=1S/C4H7ClO2/c1-2-3-7-4(5)6/h2-3H2,1H3",
        "InChIKey": null,
        "Canonical SMILES": "O=C(Cl)OCCC",
        "Molecular Formula": "C<sub>4</sub>H<sub>7</sub>ClO<sub>2</sub>",
        "Molecular Mass": "122.55",
        "Boiling Point": "112.4 °C",
        "Density": "1.091 g/cm³ @ Temp: 20 °C"
    }
}