{
    "cas_no": "596-94-1",
    "key_name": "(20<em>R</em>,22<em>R</em>)-20,22-Dihydroxycholesterol",
    "cn_name": null,
    "alternate_name": "Cholest-5-ene-3,20,22-triol, (3β,22<em>R</em>)-;Cholest-5-ene-3β,20,22-triol, (22<em>R</em>)-;(3β,22<em>R</em>)-Cholest-5-ene-3,20,22-triol;(22<em>R</em>)-20α,22-Dihydroxycholesterol;20α,22(<em>R</em>)-Dihydroxycholesterol;(20<em>R</em>,22<em>R</em>)-Dihydroxycholesterol;(20<em>R</em>,22<em>R</em>)-20,22-Dihydroxycholesterol;(22<em>R</em>)-5-Cholesten-3β,20α,22-triol",
    "duplicated_cas_no": "15234-55-6",
    "SMILES": "C[C@@]12[C@]([C@]3([C@](CC1)([C@]4(C)C(=CC3)C[C@@H](O)CC4)[H])[H])(CC[C@@]2([C@@]([C@@H](CCC(C)C)O)(C)O)[H])[H]",
    "meta_data": {
        "InChI": "InChI=1S/C27H46O3/c1-17(2)6-11-24(29)27(5,30)23-10-9-21-20-8-7-18-16-19(28)12-14-25(18,3)22(20)13-15-26(21,23)4/h7,17,19-24,28-30H,6,8-16H2,1-5H3/t19-,20-,21-,22-,23-,24+,25-,26-,27+/m0/s1",
        "InChIKey": null,
        "Canonical SMILES": "OC1CC2=CCC3C(CCC4(C)C3CCC4C(O)(C)C(O)CCC(C)C)C2(C)CC1",
        "Molecular Formula": "C<sub>27</sub>H<sub>46</sub>O<sub>3</sub>",
        "Molecular Mass": "418.65",
        "Melting Point": "183 °C"
    }
}