{
    "cas_no": "7439-90-9",
    "key_name": "Krypton",
    "cn_name": "氪;氪气;液氪;氪KR;",
    "alternate_name": "Krypton;MeSH ID: D007726",
    "duplicated_cas_no": "50938-65-3",
    "SMILES": "[Kr]",
    "meta_data": {
        "InChI": "InChI=1S/Kr",
        "InChIKey": null,
        "Canonical SMILES": "[Kr]",
        "Molecular Formula": "Kr",
        "Molecular Mass": "",
        "Boiling Point": "-153 °C",
        "Melting Point": "-157 °C",
        "Density": "0.91900 g/cm³"
    }
}