{
    "cas_no": "69901-85-5",
    "key_name": "(α<em>R</em>)-α-[[(Phenylmethoxy)carbonyl]amino]cyclohexaneacetic acid",
    "cn_name": "N-Z-D-α-环己基甘氨酸;",
    "alternate_name": "Cyclohexaneacetic acid, α-[[(phenylmethoxy)carbonyl]amino]-, (α<em>R</em>)-;Cyclohexaneacetic acid, α-[[(phenylmethoxy)carbonyl]amino]-, (<em>R</em>)-;(α<em>R</em>)-α-[[(Phenylmethoxy)carbonyl]amino]cyclohexaneacetic acid;(R)-2-(((Benzyloxy)carbonyl)amino)-2-cyclohexylaceticacid;(R)-2-(((Benzyloxy)carbonyl)amino)-2-cyclohexylacetic acid",
    "duplicated_cas_no": "",
    "SMILES": "[C@H](NC(OCC1=CC=CC=C1)=O)(C(O)=O)C2CCCCC2",
    "meta_data": {
        "InChI": "InChI=1S/C16H21NO4/c18-15(19)14(13-9-5-2-6-10-13)17-16(20)21-11-12-7-3-1-4-8-12/h1,3-4,7-8,13-14H,2,5-6,9-11H2,(H,17,20)(H,18,19)/t14-/m1/s1",
        "InChIKey": null,
        "Canonical SMILES": "O=C(OCC=1C=CC=CC1)NC(C(=O)O)C2CCCCC2",
        "Molecular Formula": "C<sub>16</sub>H<sub>21</sub>NO<sub>4</sub>",
        "Molecular Mass": "291.34",
        "Melting Point": "103 °C"
    }
}