{
    "cas_no": "5405-40-3",
    "key_name": "(+)-Pantolactone",
    "cn_name": "L-(+)-泛解酸内酯;S-泛解酸内酯;S(+)-2-羟基-3,3-二甲基-γ-丁内酯;L-(+)-泛解酸内酯;",
    "alternate_name": "2(3<em>H</em>)-Furanone, dihydro-3-hydroxy-4,4-dimethyl-, (3<em>S</em>)-;2(3<em>H</em>)-Furanone, dihydro-3-hydroxy-4,4-dimethyl-, <span class=\"text-smallcaps\">L</span>-(+)-;2(3<em>H</em>)-Furanone, dihydro-3-hydroxy-4,4-dimethyl-, (<em>S</em>)-;(3<em>S</em>)-Dihydro-3-hydroxy-4,4-dimethyl-2(3<em>H</em>)-furanone;<span class=\"text-smallcaps\">L</span>-(+)-α-Hydroxy-β,β-dimethyl-γ-butyrolactone;<span class=\"text-smallcaps\">L</span>-Pantoyl lactone;<span class=\"text-smallcaps\">L</span>-Pantolactone;<span class=\"text-smallcaps\">L</span>-(+)-Pantoyl lactone;<span class=\"text-smallcaps\">L</span>-(+)-Pantolactone;(<em>S</em>)-Pantolactone;(+)-Pantoyl lactone;(+)-Pantolactone;(+)-2-Hydroxy-3,3-dimethyl-γ-butyrolactone;(<em>S</em>)-(+)-Pantolactone;(3S)-3-Hydroxy-4,4-dimethyloxolan-2-one",
    "duplicated_cas_no": "",
    "SMILES": "O[C@H]1C(C)(C)COC1=O",
    "meta_data": {
        "InChI": "InChI=1S/C6H10O3/c1-6(2)3-9-5(8)4(6)7/h4,7H,3H2,1-2H3/t4-/m1/s1",
        "InChIKey": null,
        "Canonical SMILES": "O=C1OCC(C)(C)C1O",
        "Molecular Formula": "C<sub>6</sub>H<sub>10</sub>O<sub>3</sub>",
        "Molecular Mass": "130.14",
        "Melting Point": "86.6-90 °C"
    }
}