{
    "cas_no": "17609-48-2",
    "key_name": "Benzeneacetic acid, α-amino-, ethyl ester, hydrochloride (1:1), (α<em>R</em>)-",
    "cn_name": "(R)-α-氨基苯乙酸乙酯氢氯化物;",
    "alternate_name": "Benzeneacetic acid, α-amino-, ethyl ester, hydrochloride (1:1), (α<em>R</em>)-;Glycine, 2-phenyl-, ethyl ester, monohydrochloride, <span class=\"text-smallcaps\">D</span>-(-)-;Benzeneacetic acid, α-amino-, ethyl ester, hydrochloride, (<em>R</em>)-;Benzeneacetic acid, α-amino-, ethyl ester, hydrochloride, (α<em>R</em>)-;Ethyl <span class=\"text-smallcaps\">D</span>-phenylglycinate hydrochloride;<span class=\"text-smallcaps\">D</span>-(-)-α-Phenylglycine ethyl ester hydrochloride;Ethyl <span class=\"text-smallcaps\">D</span>-(-)-α-phenylglycinate hydrochloride;(<em>R</em>)-Phenylglycine ethyl ester hydrochloride;<span class=\"text-smallcaps\">D</span>-α-Phenylglycine ethyl ester hydrochloride;<span class=\"text-smallcaps\">D</span>-Phenylglycine ethyl ester hydrochloride;(<em>R</em>)-(+)-Phenylglycine ethyl ester hydrochloride;Ethyl (2<em>R</em>)-2-amino-2-(phenyl)acetate hydrochloride;(R)-2-PhenyLglycine ethyl ester hydrochloride",
    "duplicated_cas_no": "",
    "SMILES": "[C@@H](C(OCC)=O)(N)C1=CC=CC=C1.Cl",
    "meta_data": {
        "InChI": "InChI=1S/C10H13NO2.ClH/c1-2-13-10(12)9(11)8-6-4-3-5-7-8;/h3-7,9H,2,11H2,1H3;1H/t9-;/m1./s1",
        "InChIKey": null,
        "Canonical SMILES": "Cl.O=C(OCC)C(N)C=1C=CC=CC1",
        "Molecular Formula": "C<sub>10</sub>H<sub>13</sub>NO<sub>2</sub>.ClH",
        "Molecular Mass": "",
        "Melting Point": "189-190 °C"
    }
}