{
    "cas_no": "2368-53-8",
    "key_name": "2,4-Dichloro-1,3,5-trifluorobenzene",
    "cn_name": null,
    "alternate_name": "Benzene, 2,4-dichloro-1,3,5-trifluoro-;2,4-Dichloro-1,3,5-trifluorobenzene;1,3,5-Trifluoro-2,4-dichlorobenzene;1,3-Dichloro-2,4,6-trifluorobenzene",
    "duplicated_cas_no": "",
    "SMILES": "ClC1=C(F)C(Cl)=C(F)C=C1F",
    "meta_data": {
        "InChI": "InChI=1S/C6HCl2F3/c7-4-2(9)1-3(10)5(8)6(4)11/h1H",
        "InChIKey": null,
        "Canonical SMILES": "FC=1C=C(F)C(Cl)=C(F)C1Cl",
        "Molecular Formula": "C<sub>6</sub>HCl<sub>2</sub>F<sub>3</sub>",
        "Molecular Mass": "200.97",
        "Boiling Point": "161-162 °C",
        "Melting Point": "-11--10 °C",
        "Density": "1.599 g/cm³ @ Temp: 20 °C"
    }
}