{
    "cas_no": "99-68-3",
    "key_name": "2-[(Carboxymethyl)thio]butanedioic acid",
    "cn_name": "2-羧甲基硫代琥珀酸;",
    "alternate_name": "Butanedioic acid, 2-[(carboxymethyl)thio]-;Butanedioic acid, [(carboxymethyl)thio]-;Succinic acid, [(carboxymethyl)thio]-;2-[(Carboxymethyl)thio]butanedioic acid;Carboxymethylmercaptosuccinic acid;[(Carboxymethyl)thio]succinic acid;2-((Carboxymethyl)thio)succinic acid;NSC 59711;2-[(Carboxymethyl)sulfanyl]succinic acid",
    "duplicated_cas_no": "",
    "SMILES": "C(SCC(O)=O)(CC(O)=O)C(O)=O",
    "meta_data": {
        "InChI": "InChI=1S/C6H8O6S/c7-4(8)1-3(6(11)12)13-2-5(9)10/h3H,1-2H2,(H,7,8)(H,9,10)(H,11,12)",
        "InChIKey": null,
        "Canonical SMILES": "O=C(O)CSC(C(=O)O)CC(=O)O",
        "Molecular Formula": "C<sub>6</sub>H<sub>8</sub>O<sub>6</sub>S",
        "Molecular Mass": "208.19",
        "Melting Point": "139 °C"
    }
}