{
    "cas_no": "57320-63-5",
    "key_name": "4-(Difluoromethoxy)benzoyl chloride",
    "cn_name": "4-(二氟甲氧基)苯甲酰氯;",
    "alternate_name": "Benzoyl chloride, 4-(difluoromethoxy)-;4-(Difluoromethoxy)benzoyl chloride;<em>p</em>-(Difluoromethoxy)benzoyl chloride",
    "duplicated_cas_no": "",
    "SMILES": "O(C(F)F)C1=CC=C(C(Cl)=O)C=C1",
    "meta_data": {
        "InChI": "InChI=1S/C8H5ClF2O2/c9-7(12)5-1-3-6(4-2-5)13-8(10)11/h1-4,8H",
        "InChIKey": null,
        "Canonical SMILES": "O=C(Cl)C1=CC=C(OC(F)F)C=C1",
        "Molecular Formula": "C<sub>8</sub>H<sub>5</sub>ClF<sub>2</sub>O<sub>2</sub>",
        "Molecular Mass": "206.57",
        "Boiling Point": "113 °C @ Press: 10 Torr"
    }
}