{
    "cas_no": "541-73-1",
    "key_name": "1,3-Dichlorobenzene",
    "cn_name": null,
    "alternate_name": "Benzene, 1,3-dichloro-;Benzene, <em>m</em>-dichloro-;1,3-Dichlorobenzene;<em>m</em>-Dichlorobenzene;<em>m</em>-Phenylene dichloride;<em>m</em>-Dichlorobenzol;2,6-Dichlorobenzene;NSC 8754;2,4-Dichlorobenzene",
    "duplicated_cas_no": "",
    "SMILES": "ClC1=CC(Cl)=CC=C1",
    "meta_data": {
        "InChI": "InChI=1S/C6H4Cl2/c7-5-2-1-3-6(8)4-5/h1-4H",
        "InChIKey": null,
        "Canonical SMILES": "ClC1=CC=CC(Cl)=C1",
        "Molecular Formula": "C<sub>6</sub>H<sub>4</sub>Cl<sub>2</sub>",
        "Molecular Mass": "147.00",
        "Boiling Point": "173 °C",
        "Melting Point": "-24.8 °C",
        "Density": "1.2884 g/cm³ @ Temp: 20 °C"
    }
}