{
    "cas_no": "2675-77-6",
    "key_name": "1,4-Dichloro-2,5-dimethoxybenzene",
    "cn_name": "地茂散;氯苯甲醚;1,4-二氯-2,5-二甲氧基苯;",
    "alternate_name": "Benzene, 1,4-dichloro-2,5-dimethoxy-;1,4-Dichloro-2,5-dimethoxybenzene;Soil Fungicide 1823;Chloroneb;Demosan 65W;Demosan;2,5-Dichloro-1,4-dimethoxybenzene;FloPro D;NSC 151546",
    "duplicated_cas_no": "",
    "SMILES": "O(C)C1=C(Cl)C=C(OC)C(Cl)=C1",
    "meta_data": {
        "InChI": "InChI=1S/C8H8Cl2O2/c1-11-7-3-6(10)8(12-2)4-5(7)9/h3-4H,1-2H3",
        "InChIKey": null,
        "Canonical SMILES": "ClC=1C=C(OC)C(Cl)=CC1OC",
        "Molecular Formula": "C<sub>8</sub>H<sub>8</sub>Cl<sub>2</sub>O<sub>2</sub>",
        "Molecular Mass": "207.05",
        "Boiling Point": "268 °C",
        "Melting Point": "133-135 °C",
        "Density": "1.66 g/cm³"
    }
}