{
    "cas_no": "7752-82-1",
    "key_name": "2-Amino-5-bromopyrimidine",
    "cn_name": "2-氨基-5-溴嘧啶;",
    "alternate_name": "2-Pyrimidinamine, 5-bromo-;Pyrimidine, 2-amino-5-bromo-;5-Bromo-2-pyrimidinamine;2-Amino-5-bromopyrimidine;5-Bromopyrimidin-2-ylamine;NSC 27269;5-Bromo-2-aminopyrimidine",
    "duplicated_cas_no": "",
    "SMILES": "BrC=1C=NC(N)=NC1",
    "meta_data": {
        "InChI": "InChI=1S/C4H4BrN3/c5-3-1-7-4(6)8-2-3/h1-2H,(H2,6,7,8)",
        "InChIKey": null,
        "Canonical SMILES": "BrC1=CN=C(N=C1)N",
        "Molecular Formula": "C<sub>4</sub>H<sub>4</sub>BrN<sub>3</sub>",
        "Molecular Mass": "174.00",
        "Melting Point": "237-238 °C"
    }
}