{
    "cas_no": "101-27-9",
    "key_name": "Barban",
    "cn_name": "燕麦灵;尔板;4-氯-2-丁炔基-N-间氯苯基氨基甲酸酯;",
    "alternate_name": "Carbamic acid, <em>N</em>-(3-chlorophenyl)-, 4-chloro-2-butyn-1-yl ester;Carbanilic acid, <em>m</em>-chloro-, 4-chloro-2-butynyl ester;Carbamic acid, (3-chlorophenyl)-, 4-chloro-2-butynyl ester;S 847;Barban;Barbane;Carbyne;CBN;4-Chloro-2-butynyl <em>m</em>-chlorocarbanilate;A 980;4-Chloro-2-butynyl <em>N</em>-(3-chlorophenyl)carbamate;Carbyne (herbicide);4-Chloro-2-butynyl 3-chlorocarbanilate;4-[<em>N</em>-(3-Chlorophenyl)carbamoyloxy]-1-chloro-2-butyne;4-Chloro-2-butyn-1-yl <em>N</em>-(3-chlorophenyl)carbamate;NSC 29168;A 980 (herbicide);Barbanate",
    "duplicated_cas_no": "",
    "SMILES": "N(C(OCC#CCCl)=O)C1=CC(Cl)=CC=C1",
    "meta_data": {
        "InChI": "InChI=1S/C11H9Cl2NO2/c12-6-1-2-7-16-11(15)14-10-5-3-4-9(13)8-10/h3-5,8H,6-7H2,(H,14,15)",
        "InChIKey": null,
        "Canonical SMILES": "O=C(OCC#CCCl)NC=1C=CC=C(Cl)C1",
        "Molecular Formula": "C<sub>11</sub>H<sub>9</sub>Cl<sub>2</sub>NO<sub>2</sub>",
        "Molecular Mass": "258.10",
        "Melting Point": "75-76 °C",
        "Density": "1.403 g/cm³ @ Temp: 25 °C"
    }
}