{
    "cas_no": "2212-81-9",
    "key_name": "1,3-Bis(<em>tert</em>-butylperoxyisopropyl)benzene",
    "cn_name": "1,3-双丁基过氧异丙基苯;",
    "alternate_name": "Peroxide, 1,1′-[1,3-phenylenebis(1-methylethylidene)]bis[2-(1,1-dimethylethyl);Peroxide, (<em>m</em>-phenylenediisopropylidene)bis[<em>tert</em>-butyl;Peroxide, [1,3-phenylenebis(1-methylethylidene)]bis[(1,1-dimethylethyl);1,1′-[1,3-Phenylenebis(1-methylethylidene)]bis[2-(1,1-dimethylethyl) peroxide];1,3-Di-<em>tert</em>-butylperoxydiisopropylbenzene;<em>m</em>-Bis[2-(<em>tert</em>-butylperoxy)-2-propyl]benzene;<em>m</em>-Bis(<em>tert</em>-butylperoxyisopropyl)benzene;1,3-Bis(2-<em>tert</em>-butyldioxyprop-2-yl)benzene;1,3-Bis(2-<em>tert</em>-butylperoxy-2-propyl)benzene;1,3-Bis(<em>tert</em>-butylperoxyisopropyl)benzene;1,3-Bis[α-(<em>tert</em>-butyldioxy)isopropyl]benzene;<em>m</em>-Bis[2-(<em>tert</em>-butyldioxy)-2-propyl]benzene;1,3-Bis(1-<em>tert</em>-butyldioxy-1-methylethyl)benzene;1,3-Bis(<em>tert</em>-butyldioxyisopropyl)benzene;<em>m</em>-Bis(2-<em>tert</em>-butylperoxyisopropyl)benzene;1,3-Bis[α-(<em>tert</em>-butylperoxy)isopropyl]benzene;Perkadox 14C;Perkadox 14/96;Perkadox 14/40;Sanperox TY 1.3-90;1,3-Bis(2-<em>tert</em>-butylperoxyisopropyl)benzene;TY 13;Sanperox TY 1.3;Perbutyl P;Perkadox 14/40C;Perbutyl P 40;Perkadox 1K/40;PBP;PBP (peroxide);Perkadox 14/90;Bis-PO;1,3-Di(2-<em>tert</em>-butylperoxyisopropyl)benzene;Perkadox 14G;α,α′-Bis(<em>tert</em>-butylperoxy)-1,3-diisopropylbenzene;Bis(t-butylperoxyisopropyl)benzene;F 40;F 60;BIBP 90;BIBP-F 40;BIBP-F 40SP2;1,3-Bis(t-butylperoxyisopropyl)benzene;BIPB;BIPB 96;Perkadox 14-40B-PD-S;BIPB 40GE;Akesu 14L-FS",
    "duplicated_cas_no": "1453811-71-6;2377185-13-0",
    "SMILES": "C(OOC(C)(C)C)(C)(C)C1=CC(C(OOC(C)(C)C)(C)C)=CC=C1",
    "meta_data": {
        "InChI": "InChI=1S/C20H34O4/c1-17(2,3)21-23-19(7,8)15-12-11-13-16(14-15)20(9,10)24-22-18(4,5)6/h11-14H,1-10H3",
        "InChIKey": null,
        "Canonical SMILES": "O(OC(C)(C)C)C(C1=CC=CC(=C1)C(OOC(C)(C)C)(C)C)(C)C",
        "Molecular Formula": "C<sub>20</sub>H<sub>34</sub>O<sub>4</sub>",
        "Molecular Mass": "338.48",
        "Melting Point": "49-52 °C",
        "Density": "0.9361 g/cm³ @ Temp: 24.34 °C"
    }
}