{
    "cas_no": "15864-32-1",
    "key_name": "2-Amino-6-bromobenzothiazole",
    "cn_name": "2-氨基-6-溴苯并噻唑;",
    "alternate_name": "2-Benzothiazolamine, 6-bromo-;Benzothiazole, 2-amino-6-bromo-;Benzothiazole, 1-amino-5-bromo-;6-Bromo-2-benzothiazolamine;2-Amino-6-bromobenzothiazole;6-Bromo-2-aminobenzothiazole;NSC 270077;(6-Bromobenzothiazol-2-yl)amine;6-Bromobenzo[<em>d</em>]thiazol-2-amine",
    "duplicated_cas_no": "",
    "SMILES": "NC1=NC=2C(S1)=CC(Br)=CC2",
    "meta_data": {
        "InChI": "InChI=1S/C7H5BrN2S/c8-4-1-2-5-6(3-4)11-7(9)10-5/h1-3H,(H2,9,10)",
        "InChIKey": null,
        "Canonical SMILES": "BrC=1C=CC=2N=C(SC2C1)N",
        "Molecular Formula": "C<sub>7</sub>H<sub>5</sub>BrN<sub>2</sub>S",
        "Molecular Mass": "229.10",
        "Melting Point": "210-212 °C"
    }
}