{
    "cas_no": "13491-79-7",
    "key_name": "2-<em>tert</em>-Butylcyclohexanol",
    "cn_name": "2-(1,1-二甲基乙基)环己醇;",
    "alternate_name": "Cyclohexanol, 2-(1,1-dimethylethyl)-;Cyclohexanol, 2-<em>tert</em>-butyl-;2-(1,1-Dimethylethyl)cyclohexanol;2-<em>tert</em>-Butylcyclohexanol;2-(<em>tert</em>-Butyl)cyclohexan-1-ol",
    "duplicated_cas_no": "",
    "SMILES": "C(C)(C)(C)C1C(O)CCCC1",
    "meta_data": {
        "InChI": "InChI=1S/C10H20O/c1-10(2,3)8-6-4-5-7-9(8)11/h8-9,11H,4-7H2,1-3H3",
        "InChIKey": null,
        "Canonical SMILES": "OC1CCCCC1C(C)(C)C",
        "Molecular Formula": "C<sub>10</sub>H<sub>20</sub>O",
        "Molecular Mass": "156.27",
        "Melting Point": "45 °C"
    }
}