{
    "cas_no": "90-59-5",
    "key_name": "3,5-Dibromosalicylaldehyde",
    "cn_name": "3,5-二溴水杨醛;",
    "alternate_name": "Benzaldehyde, 3,5-dibromo-2-hydroxy-;Salicylaldehyde, 3,5-dibromo-;3,5-Dibromo-2-hydroxybenzaldehyde;Dalyde;3,5-Dibromosalicylaldehyde;2-Hydroxy-3,5-dibromobenzaldehyde;NSC 6221;1-Formyl-2-hydroxy-3,5-dibromobenzene;4,6-Dibromo-2-formylphenol;2,4-Dibromo-6-formylphenol",
    "duplicated_cas_no": "",
    "SMILES": "C(=O)C1=C(O)C(Br)=CC(Br)=C1",
    "meta_data": {
        "InChI": "InChI=1S/C7H4Br2O2/c8-5-1-4(3-10)7(11)6(9)2-5/h1-3,11H",
        "InChIKey": null,
        "Canonical SMILES": "O=CC=1C=C(Br)C=C(Br)C1O",
        "Molecular Formula": "C<sub>7</sub>H<sub>4</sub>Br<sub>2</sub>O<sub>2</sub>",
        "Molecular Mass": "279.91",
        "Melting Point": "86 °C"
    }
}