{
    "cas_no": "1663-39-4",
    "key_name": "<em>tert</em>-Butyl acrylate",
    "cn_name": "丙烯酸叔丁酯;",
    "alternate_name": "2-Propenoic acid, 1,1-dimethylethyl ester;Acrylic acid, <em>tert</em>-butyl ester;<em>tert</em>-Butyl 2-propenoate;2-Propenoic acid <em>tert</em>-butyl ester;<em>tert</em>-Butyl propenoate;1,1-Dimethylethyl 2-propenoate;<em>tert</em>-Butyl acrylate;NSC 20950;<em>t</em>-Butyl acrylate;Light Acrylate TB;Light Acrylate TBA",
    "duplicated_cas_no": "782475-36-9",
    "SMILES": "O(C(C)(C)C)C(C=C)=O",
    "meta_data": {
        "InChI": "InChI=1S/C7H12O2/c1-5-6(8)9-7(2,3)4/h5H,1H2,2-4H3",
        "InChIKey": null,
        "Canonical SMILES": "O=C(OC(C)(C)C)C=C",
        "Molecular Formula": "C<sub>7</sub>H<sub>12</sub>O<sub>2</sub>",
        "Molecular Mass": "128.17",
        "Boiling Point": "120 °C",
        "Density": "0.879 g/cm³ @ Temp: 25 °C"
    }
}