{
    "cas_no": "5509-65-9",
    "key_name": "2,6-Difluoroaniline",
    "cn_name": "2,6-二氟苯胺;",
    "alternate_name": "Benzenamine, 2,6-difluoro-;Aniline, 2,6-difluoro-;2,6-Difluorobenzenamine;2,6-Difluoroaniline;NSC 127234;2,6-Difluorobenzeneamine;2,6-Difluorophenylamine",
    "duplicated_cas_no": "",
    "SMILES": "NC1=C(F)C=CC=C1F",
    "meta_data": {
        "InChI": "InChI=1S/C6H5F2N/c7-4-2-1-3-5(8)6(4)9/h1-3H,9H2",
        "InChIKey": null,
        "Canonical SMILES": "FC1=CC=CC(F)=C1N",
        "Molecular Formula": "C<sub>6</sub>H<sub>5</sub>F<sub>2</sub>N",
        "Molecular Mass": "129.11",
        "Boiling Point": "51-52 °C @ Press: 15 Torr"
    }
}