{
    "cas_no": "56-10-0",
    "key_name": "Antiradon",
    "cn_name": "乙胺硫脲;2-氨乙基异硫脲氢溴酸盐;",
    "alternate_name": "Carbamimidothioic acid, 2-aminoethyl ester, hydrobromide (1:2);Pseudourea, 2-(2-aminoethyl)-2-thio-, dihydrobromide;Carbamimidothioic acid, 2-aminoethyl ester, dihydrobromide;<em>S</em>-(2-Aminoethyl)isothiuronium bromide hydrobromide;<em>S</em>-(β-Aminoethyl)isothiuronium bromide hydrobromide;2-(2-Aminoethyl)-2-thiopseudourea hydrobromide;Antiradon;Surrectan;2-(β-Aminoethyl)isothiuronium bromide hydrobromide;AET;2-(2-Aminoethyl)-2-thiopseudourea dihydrobromide;NSC 22877;Ixecur;2-(2-Aminoethyl)isothiourea dihydrobromide",
    "duplicated_cas_no": "927-71-9",
    "SMILES": "S(C(=N)N)CCN.Br",
    "meta_data": {
        "InChI": "InChI=1S/C3H9N3S.2BrH/c4-1-2-7-3(5)6;;/h1-2,4H2,(H3,5,6);2*1H",
        "InChIKey": null,
        "Canonical SMILES": "Br.N=C(SCCN)N",
        "Molecular Formula": "C<sub>3</sub>H<sub>9</sub>N<sub>3</sub>S.2BrH",
        "Molecular Mass": "",
        "Melting Point": "181-182 °C",
        "Density": "1.94 g/cm³"
    }
}