{
    "cas_no": "700-84-5",
    "key_name": "5-Fluoro-1-indanone",
    "cn_name": "5-氟-1-茚酮;5-氟茚酮;",
    "alternate_name": "1<em>H</em>-Inden-1-one, 5-fluoro-2,3-dihydro-;1-Indanone, 5-fluoro-;5-Fluoro-2,3-dihydro-1<em>H</em>-inden-1-one;5-Fluoro-1-indanone;5-Fluoro-2,3-dihydroinden-1-one",
    "duplicated_cas_no": "",
    "SMILES": "O=C1C=2C(CC1)=CC(F)=CC2",
    "meta_data": {
        "InChI": "InChI=1S/C9H7FO/c10-7-2-3-8-6(5-7)1-4-9(8)11/h2-3,5H,1,4H2",
        "InChIKey": null,
        "Canonical SMILES": "O=C1C2=CC=C(F)C=C2CC1",
        "Molecular Formula": "C<sub>9</sub>H<sub>7</sub>FO",
        "Molecular Mass": "150.15",
        "Boiling Point": "61-66 °C @ Press: 0.15-0.2 Torr"
    }
}