{
    "cas_no": "54278-10-3",
    "key_name": "Ethyl 5-(ethoxycarbonyl)-2,4-dimethyl-1<em>H</em>-pyrrole-3-propanoate",
    "cn_name": "5-乙氧羰基-2,4-二甲基-1-氢-吡咯-3-丙酸乙酯;",
    "alternate_name": "1<em>H</em>-Pyrrole-3-propanoic acid, 5-(ethoxycarbonyl)-2,4-dimethyl-, ethyl ester;Pyrrole-3-propionic acid, 5-carboxy-2,4-dimethyl-, diethyl ester;Ethyl 5-(ethoxycarbonyl)-2,4-dimethyl-1<em>H</em>-pyrrole-3-propanoate;2-Ethoxycarbonyl-4-(2-ethoxycarbonylethyl)-3,5-dimethylpyrrole;NSC 157290",
    "duplicated_cas_no": "",
    "SMILES": "C(OCC)(=O)C1=C(C)C(CCC(OCC)=O)=C(C)N1",
    "meta_data": {
        "InChI": "InChI=1S/C14H21NO4/c1-5-18-12(16)8-7-11-9(3)13(15-10(11)4)14(17)19-6-2/h15H,5-8H2,1-4H3",
        "InChIKey": null,
        "Canonical SMILES": "O=C(OCC)C=1NC(=C(C1C)CCC(=O)OCC)C",
        "Molecular Formula": "C<sub>14</sub>H<sub>21</sub>NO<sub>4</sub>",
        "Molecular Mass": "267.32",
        "Boiling Point": "165-170 °C @ Press: 0.02 Torr",
        "Melting Point": "73 °C"
    }
}