{
    "cas_no": "932-72-9",
    "key_name": "Iodobenzene dichloride",
    "cn_name": null,
    "alternate_name": "Iodine, dichlorophenyl-;Benzene, (dichloroiodo)-;Benzene, iodo-, dichloride;Dichlorophenyliodine;Iodobenzene dichloride;(Dichloroiodo)benzene;Phenylchloroiodonium chloride;Phenyliodine dichloride;Phenyliodoso dichloride;Phenyl iodosochloride;Phenyliodonium dichloride;Chlorophenyliodonium chloride;NSC 149834",
    "duplicated_cas_no": "94718-59-9",
    "SMILES": "I(Cl)(Cl)C1=CC=CC=C1",
    "meta_data": {
        "InChI": "InChI=1S/C6H5Cl2I/c7-9(8)6-4-2-1-3-5-6/h1-5H",
        "InChIKey": null,
        "Canonical SMILES": "ClI(Cl)C=1C=CC=CC1",
        "Molecular Formula": "C<sub>6</sub>H<sub>5</sub>Cl<sub>2</sub>I",
        "Molecular Mass": "274.91",
        "Melting Point": "110-112 °C (decomp)"
    }
}