{
    "cas_no": "6789-80-6",
    "key_name": "(<em>Z</em>)-3-Hexenal",
    "cn_name": "(Z)-3-己烯醛;顺-3-己烯醛;",
    "alternate_name": "3-Hexenal, (3<em>Z</em>)-;3-Hexenal, (<em>Z</em>)-;3-Hexenal, <em>cis</em>-;(3<em>Z</em>)-3-Hexenal;<em>cis</em>-3-Hexenal;3-(<em>Z</em>)-Hexenal;(<em>Z</em>)-3-Hexenal;(<em>Z</em>)-Hex-3-enal",
    "duplicated_cas_no": "",
    "SMILES": "C(=C\\CC)\\CC=O",
    "meta_data": {
        "InChI": "InChI=1S/C6H10O/c1-2-3-4-5-6-7/h3-4,6H,2,5H2,1H3/b4-3-",
        "InChIKey": null,
        "Canonical SMILES": "O=CCC=CCC",
        "Molecular Formula": "C<sub>6</sub>H<sub>10</sub>O",
        "Molecular Mass": "98.14",
        "Boiling Point": "121 °C",
        "Density": "0.8533 g/cm³ @ Temp: 20 °C"
    }
}