{
    "cas_no": "132095-54-6",
    "key_name": "7-Bromo-2-tetralone",
    "cn_name": "7-溴-3,4-二氢-1H-2-萘酮;",
    "alternate_name": "2(1<em>H</em>)-Naphthalenone, 7-bromo-3,4-dihydro-;7-Bromo-3,4-dihydro-2(1<em>H</em>)-naphthalenone;OSU 71B;7-Bromo-2-tetralone;7-Bromo-3,4-dihydro-1<em>H</em>-naphthalen-2-one",
    "duplicated_cas_no": "",
    "SMILES": "BrC=1C=C2C(CCC(=O)C2)=CC1",
    "meta_data": {
        "InChI": "InChI=1S/C10H9BrO/c11-9-3-1-7-2-4-10(12)6-8(7)5-9/h1,3,5H,2,4,6H2",
        "InChIKey": null,
        "Canonical SMILES": "O=C1CC2=CC(Br)=CC=C2CC1",
        "Molecular Formula": "C<sub>10</sub>H<sub>9</sub>BrO",
        "Molecular Mass": "225.08",
        "Melting Point": "72-74 °C"
    }
}