{
    "cas_no": "1204-06-4",
    "key_name": "Indole-3-acrylic acid",
    "cn_name": "吲哚-3-丙烯酸;3-吲哚丙烯酸;",
    "alternate_name": "2-Propenoic acid, 3-(1<em>H</em>-indol-3-yl)-;Indole-3-acrylic acid;3-(1<em>H</em>-Indol-3-yl)-2-propenoic acid;3-Indolylacrylic acid;Indoleacrylic acid;3-β-Indoleacrylic acid;3-(3-Indolyl)acrylic acid;3-(1<em>H</em>-Indol-3-yl)acrylic acid;NSC 137806;NSC 29428;NSC 612862;3-(Indol-3-yl)prop-2-enoic acid",
    "duplicated_cas_no": "",
    "SMILES": "C(=CC(O)=O)C=1C=2C(NC1)=CC=CC2",
    "meta_data": {
        "InChI": "InChI=1S/C11H9NO2/c13-11(14)6-5-8-7-12-10-4-2-1-3-9(8)10/h1-7,12H,(H,13,14)",
        "InChIKey": null,
        "Canonical SMILES": "O=C(O)C=CC1=CNC=2C=CC=CC12",
        "Molecular Formula": "C<sub>11</sub>H<sub>9</sub>NO<sub>2</sub>",
        "Molecular Mass": "187.19",
        "Melting Point": "195-196 °C"
    }
}