{
    "cas_no": "531-95-3",
    "key_name": "Equol",
    "cn_name": "雌马酚;(S)-3,4-二氢-3-(4-羟基苯基)-2H-1-苯并吡喃-7-醇;",
    "alternate_name": "2<em>H</em>-1-Benzopyran-7-ol, 3,4-dihydro-3-(4-hydroxyphenyl)-, (3<em>S</em>)-;4′,7-Isoflavandiol;2<em>H</em>-1-Benzopyran-7-ol, 3,4-dihydro-3-(4-hydroxyphenyl)-, (<em>S</em>)-;(3<em>S</em>)-3,4-Dihydro-3-(4-hydroxyphenyl)-2<em>H</em>-1-benzopyran-7-ol;4′,7-Dihydroxyisoflavan;Equol;(<em>S</em>)-(-)-4′,7-Isoflavandiol;Equol, (-)-;(-)-Equol;(-)-(<em>S</em>)-Equol;(<em>S</em>)-Equol;(3<em>S</em>)-Equol;SE 5OH;S-equol;AUS 131;(<em>S</em>)-(-)-Equol;(3S)-3-(4-Hydroxyphenyl)-3,4-dihydro-2<em>H</em>-chromen-7-ol;(<em>S</em>)-3-(4-Hydroxyphenyl)chroman-7-ol;MeSH ID: D060754",
    "duplicated_cas_no": "20879-01-0",
    "SMILES": "OC=1C=C2C(C[C@H](CO2)C3=CC=C(O)C=C3)=CC1",
    "meta_data": {
        "InChI": "InChI=1S/C15H14O3/c16-13-4-1-10(2-5-13)12-7-11-3-6-14(17)8-15(11)18-9-12/h1-6,8,12,16-17H,7,9H2/t12-/m1/s1",
        "InChIKey": null,
        "Canonical SMILES": "OC1=CC=C(C=C1)C2COC3=CC(O)=CC=C3C2",
        "Molecular Formula": "C<sub>15</sub>H<sub>14</sub>O<sub>3</sub>",
        "Molecular Mass": "242.27",
        "Melting Point": "189.5 °C"
    }
}