{
    "cas_no": "88-44-8",
    "key_name": "2-Amino-5-methylbenzenesulfonic acid",
    "cn_name": "4-氨基甲苯-3-磺酸;",
    "alternate_name": "Benzenesulfonic acid, 2-amino-5-methyl-;<em>m</em>-Toluenesulfonic acid, 6-amino-;2-Amino-5-methylbenzenesulfonic acid;PTMS;PTMSA;<em>p</em>-Toluidine-<em>m</em>-sulfonic acid;6-Amino-<em>m</em>-toluenesulfonic acid;4-Aminotoluene-3-sulfonic acid;4-Methylaniline-2-sulfonic acid;<em>p</em>-Toluidine-2-sulfonic acid;2-Amino-5-methyl-1-benzenesulfonic acid;4-Methyl-2-sulfoaniline;4B Acid;1-Amino-4-methylbenzene-2-sulfonic acid;NSC 7544;4-Amino-1-methylbenzene-3-sulfonic acid",
    "duplicated_cas_no": "",
    "SMILES": "S(=O)(=O)(O)C1=C(N)C=CC(C)=C1",
    "meta_data": {
        "InChI": "InChI=1S/C7H9NO3S/c1-5-2-3-6(8)7(4-5)12(9,10)11/h2-4H,8H2,1H3,(H,9,10,11)",
        "InChIKey": null,
        "Canonical SMILES": "O=S(=O)(O)C1=CC(=CC=C1N)C",
        "Molecular Formula": "C<sub>7</sub>H<sub>9</sub>NO<sub>3</sub>S",
        "Molecular Mass": "187.22",
        "Melting Point": "93 °C"
    }
}