{
    "cas_no": "15945-07-0",
    "key_name": "2,4,5-Trichlorobenzenesulfonyl chloride",
    "cn_name": "2,4,5-三氯苯磺酰氯;",
    "alternate_name": "Benzenesulfonyl chloride, 2,4,5-trichloro-;2,4,5-Trichlorobenzenesulfonyl chloride;2,4,5-Trichlorophenylsulfonyl chloride;NSC 26958;2,4,5-Trichlorobenzene-1-sulfonyl chloride",
    "duplicated_cas_no": "",
    "SMILES": "S(Cl)(=O)(=O)C1=C(Cl)C=C(Cl)C(Cl)=C1",
    "meta_data": {
        "InChI": "InChI=1S/C6H2Cl4O2S/c7-3-1-5(9)6(2-4(3)8)13(10,11)12/h1-2H",
        "InChIKey": null,
        "Canonical SMILES": "O=S(=O)(Cl)C1=CC(Cl)=C(Cl)C=C1Cl",
        "Molecular Formula": "C<sub>6</sub>H<sub>2</sub>Cl<sub>4</sub>O<sub>2</sub>S",
        "Molecular Mass": "279.96",
        "Boiling Point": "138 °C @ Press: 0.5 Torr",
        "Melting Point": "65-67 °C"
    }
}