{
    "cas_no": "20316-62-5",
    "key_name": "Tiliroside",
    "cn_name": "银椴甙;",
    "alternate_name": "4<em>H</em>-1-Benzopyran-4-one, 5,7-dihydroxy-2-(4-hydroxyphenyl)-3-[[6-<em>O</em>-[(2<em>E</em>)-3-(4-hydroxyphenyl)-1-oxo-2-propen-1-yl]-β-<span class=\"text-smallcaps\">D</span>-glucopyranosyl]oxy]-;Tiliroside;2-Propenoic acid, 3-(4-hydroxyphenyl)-, 6′-ester with 3-(β-<span class=\"text-smallcaps\">D</span>-glucopyranosyloxy)-5,7-dihydroxy-2-(4-hydroxyphenyl)-4<em>H</em>-1-benzopyran-4-one, (<em>E</em>)-;4<em>H</em>-1-Benzopyran-4-one, 5,7-dihydroxy-2-(4-hydroxyphenyl)-3-[[6-<em>O</em>-[(2<em>E</em>)-3-(4-hydroxyphenyl)-1-oxo-2-propenyl]-β-<span class=\"text-smallcaps\">D</span>-glucopyranosyl]oxy]-;5,7-Dihydroxy-2-(4-hydroxyphenyl)-3-[[6-<em>O</em>-[(2<em>E</em>)-3-(4-hydroxyphenyl)-1-oxo-2-propen-1-yl]-β-<span class=\"text-smallcaps\">D</span>-glucopyranosyl]oxy]-4<em>H</em>-1-benzopyran-4-one;4<em>H</em>-1-Benzopyran-4-one, 5,7-dihydroxy-2-(4-hydroxyphenyl)-3-[[6-<em>O</em>-[3-(4-hydroxyphenyl)-1-oxo-2-propenyl]-β-<span class=\"text-smallcaps\">D</span>-glucopyranosyl]oxy]-, (<em>E</em>)-;3-<em>O</em>-Kaempferol 6-<em>O</em>-(<em>trans</em>-<em>p</em>-coumaroyl)-β-<span class=\"text-smallcaps\">D</span>-glucopyranoside;Potengriffioside A;Kaempferol 3-<em>O</em>-(6′′-<em>trans</em>-<em>p</em>-coumaroyl)-β-<span class=\"text-smallcaps\">D</span>-glucopyranoside;Kaempferol-3-<em>O</em>-β-<span class=\"text-smallcaps\">D</span>-(6′′-<em>trans</em>-<em>p</em>-coumaroyl) glucopyranoside;Kaempferol-3-<em>O</em>-β-<span class=\"text-smallcaps\">D</span>-(6′′-<em>O</em>-(<em>E</em>)-<em>p</em>-coumaroyl)glucopyranoside;Kaempferol 3-<em>O</em>-β-<span class=\"text-smallcaps\">D</span>-(6′′-<em>E</em>-<em>p</em>-coumaroyl)glucopyranoside;Kaempferol 3-<em>O</em>-[6′′-<em>O</em>-(<em>trans</em>-<em>p</em>-coumaroyl)]-β-<span class=\"text-smallcaps\">D</span>-glucopyranoside;<em>trans</em>-Tiliroside;Kaempferol 3-<em>O</em>-(6′′-<em>O</em>-<em>p</em>-coumaroyl)glucoside;Astragalin-6&quot;-<em>trans</em>-<em>p</em>-coumarate;Kaempferol 3-<em>O</em>-β-<span class=\"text-smallcaps\">D</span>-(6′′-<em>O</em>-<em>p</em>-coumaryl)glycoside;Kaempferol 3-<em>O</em>-[6′′-<em>O</em>-(<em>E</em>)-<em>p</em>-coumaroyl]-β-<span class=\"text-smallcaps\">D</span>-glucopyranoside;RonaCare Tiliroside;Kaempferol 3-β-<span class=\"text-smallcaps\">D</span>-(6-<em>O</em>-<em>trans</em>-<em>p</em>-coumaryl)glucopyranoside;Kaempferol 3-<em>O</em>-β-<span class=\"text-smallcaps\">D</span>-(6-<em>O</em>-<em>trans</em>-<em>p</em>-coumaroyl)glucopyranoside;Kaempferol 3-<em>O</em>-β-<span class=\"text-smallcaps\">D</span>-6-<em>O</em>-(<em>p</em>-hydroxycinnamoyl)glucopyranoside;Kaempferol 3-<em>O</em>-β-<span class=\"text-smallcaps\">D</span>-(6-<em>O</em>-<em>trans</em>-4-hydroxycinnamoyl)glucopyranoside;Kaempferol-3-β-<span class=\"text-smallcaps\">D</span>-(6-<em>O</em>-<em>trans</em>-<em>p</em>-coumaroyl)glucopyranoside;3-<em>O</em>-[6′-<em>O</em>-(<em>trans</em>-<em>p</em>-Coumaroyl)-β-<span class=\"text-smallcaps\">D</span>-glucopyranosyl]kaempferol",
    "duplicated_cas_no": "104641-16-9;26187-98-4;29317-69-9;72691-80-6;74742-81-7;93860-34-5;457897-25-5;152447-76-2;162120-54-9;1214252-63-7",
    "SMILES": "O(C1=C(OC=2C(C1=O)=C(O)C=C(O)C2)C3=CC=C(O)C=C3)[C@@H]4O[C@H](COC(/C=C/C5=CC=C(O)C=C5)=O)[C@@H](O)[C@H](O)[C@H]4O",
    "meta_data": {
        "InChI": "InChI=1S/C30H26O13/c31-16-6-1-14(2-7-16)3-10-22(35)40-13-21-24(36)26(38)27(39)30(42-21)43-29-25(37)23-19(34)11-18(33)12-20(23)41-28(29)15-4-8-17(32)9-5-15/h1-12,21,24,26-27,30-34,36,38-39H,13H2/b10-3+/t21-,24-,26+,27-,30+/m1/s1",
        "InChIKey": null,
        "Canonical SMILES": "O=C(OCC1OC(OC=2C(=O)C=3C(O)=CC(O)=CC3OC2C=4C=CC(O)=CC4)C(O)C(O)C1O)C=CC5=CC=C(O)C=C5",
        "Molecular Formula": "C<sub>30</sub>H<sub>26</sub>O<sub>13</sub>",
        "Molecular Mass": "594.52",
        "Melting Point": "247-256 °C"
    }
}