{
    "cas_no": "3615-44-9",
    "key_name": "(+)-Mannoheptulose",
    "cn_name": "D-甘露(型)庚酮糖;D-甘露(型)庚酮糖;",
    "alternate_name": "<span class=\"text-smallcaps\">D</span>-<em>manno</em>-2-Heptulose;<span class=\"text-smallcaps\">D</span>-<em>manno</em>-Heptulose;<span class=\"text-smallcaps\">D</span>-Mannoheptulose;(+)-Mannoheptulose;NSC 226836",
    "duplicated_cas_no": "",
    "SMILES": "[C@H]([C@@H]([C@@H](CO)O)O)([C@@H](C(CO)=O)O)O",
    "meta_data": {
        "InChI": "InChI=1S/C7H14O7/c8-1-3(10)5(12)7(14)6(13)4(11)2-9/h3,5-10,12-14H,1-2H2/t3-,5-,6-,7+/m1/s1",
        "InChIKey": null,
        "Canonical SMILES": "O=C(CO)C(O)C(O)C(O)C(O)CO",
        "Molecular Formula": "C<sub>7</sub>H<sub>14</sub>O<sub>7</sub>",
        "Molecular Mass": "210.18",
        "Melting Point": "151 °C"
    }
}