{
    "cas_no": "90-42-6",
    "key_name": "2-Cyclohexylcyclohexanone",
    "cn_name": "2-环己烷基环己酮;",
    "alternate_name": "[1,1′-Bicyclohexyl]-2-one;Cyclohexanone, 2-cyclohexyl-;2-Cyclohexylcyclohexanone;Lavamenthe;NSC 22249;2-Cyclohexylcyclohexan-1-one",
    "duplicated_cas_no": "112684-84-1",
    "SMILES": "O=C1C(C2CCCCC2)CCCC1",
    "meta_data": {
        "InChI": "InChI=1S/C12H20O/c13-12-9-5-4-8-11(12)10-6-2-1-3-7-10/h10-11H,1-9H2",
        "InChIKey": null,
        "Canonical SMILES": "O=C1CCCCC1C2CCCCC2",
        "Molecular Formula": "C<sub>12</sub>H<sub>20</sub>O",
        "Molecular Mass": "180.29",
        "Boiling Point": "264 °C",
        "Melting Point": "-32 °C",
        "Density": "0.987 g/cm³ @ Temp: 16 °C"
    }
}