{
    "cas_no": "1471-03-0",
    "key_name": "3-Propoxy-1-propene",
    "cn_name": "烯丙基丙酯;烯丙基正丙酯;",
    "alternate_name": "1-Propene, 3-propoxy-;Ether, allyl propyl;3-Propoxy-1-propene;Allyl propyl ether;Propyl allyl ether;NSC 158160;Allyl <em>n</em>-propyl ether;1-Prop-2-enoxypropane;3-Propoxy-1-propen",
    "duplicated_cas_no": "",
    "SMILES": "O(CCC)CC=C",
    "meta_data": {
        "InChI": "InChI=1S/C6H12O/c1-3-5-7-6-4-2/h3H,1,4-6H2,2H3",
        "InChIKey": null,
        "Canonical SMILES": "O(CC=C)CCC",
        "Molecular Formula": "C<sub>6</sub>H<sub>12</sub>O",
        "Molecular Mass": "100.16",
        "Boiling Point": "91 °C",
        "Density": "0.7670 g/cm³ @ Temp: 20 °C"
    }
}