{
    "cas_no": "16583-08-7",
    "key_name": "2,3,4,5-Tetrafluoro-6-nitrobenzoic acid",
    "cn_name": "2,3,4,5-四氟-6-硝基苯甲酸;",
    "alternate_name": "Benzoic acid, 2,3,4,5-tetrafluoro-6-nitro-;2,3,4,5-Tetrafluoro-6-nitrobenzoic acid;2-Nitro-3,4,5,6-tetrafluorobenzoic acid",
    "duplicated_cas_no": "",
    "SMILES": "C(O)(=O)C1=C(N(=O)=O)C(F)=C(F)C(F)=C1F",
    "meta_data": {
        "InChI": "InChI=1S/C7HF4NO4/c8-2-1(7(13)14)6(12(15)16)5(11)4(10)3(2)9/h(H,13,14)",
        "InChIKey": null,
        "Canonical SMILES": "O=C(O)C=1C(F)=C(F)C(F)=C(F)C1N(=O)=O",
        "Molecular Formula": "C<sub>7</sub>HF<sub>4</sub>NO<sub>4</sub>",
        "Molecular Mass": "239.08",
        "Melting Point": "135-136 °C"
    }
}