{
    "cas_no": "5058-13-9",
    "key_name": "Columbianadin",
    "cn_name": null,
    "alternate_name": "2-Butenoic acid, 2-methyl-, 1-[(8<em>S</em>)-8,9-dihydro-2-oxo-2<em>H</em>-furo[2,3-<em>h</em>]-1-benzopyran-8-yl]-1-methylethyl ester, (2<em>Z</em>)-;Columbianadin;Crotonic acid, 2-methyl-, ester with 8,9-dihydro-8-(1-hydroxy-1-methylethyl)-2<em>H</em>-furo[2,3-<em>h</em>]-1-benzopyran-2-one, (<em>Z</em>)-(<em>S</em>)-;2-Butenoic acid, 2-methyl-, 1-(8,9-dihydro-2-oxo-2<em>H</em>-furo[2,3-<em>h</em>]-1-benzopyran-8-yl)-1-methylethyl ester, [<em>S</em>-(<em>Z</em>)]-;2<em>H</em>-Furo[2,3-<em>h</em>]-1-benzopyran-2-one, 8,9-dihydro-8-(1-hydroxy-1-methylethyl)-, 2-methylcrotonate, (<em>Z</em>)-(<em>S</em>)-;2<em>H</em>-Furo[2,3-<em>h</em>]-1-benzopyran, 2-butenoic acid deriv.;Zosimin;Columbianetin angelic ester;Columbianetin angelate;Columbianedin",
    "duplicated_cas_no": "20582-57-4;21973-36-4",
    "SMILES": "[C@@](OC(/C(=C\\C)/C)=O)(C)(C)[C@@H]1CC=2C3=C(C=CC2O1)C=CC(=O)O3",
    "meta_data": {
        "InChI": "InChI=1S/C19H20O5/c1-5-11(2)18(21)24-19(3,4)15-10-13-14(22-15)8-6-12-7-9-16(20)23-17(12)13/h5-9,15H,10H2,1-4H3/b11-5-/t15-/m0/s1",
        "InChIKey": null,
        "Canonical SMILES": "O=C1OC2=C(C=C1)C=CC=3OC(CC32)C(OC(=O)C(=CC)C)(C)C",
        "Molecular Formula": "C<sub>19</sub>H<sub>20</sub>O<sub>5</sub>",
        "Molecular Mass": "328.36",
        "Melting Point": "118-119 °C"
    }
}