{
    "cas_no": "2996-92-1",
    "key_name": "Trimethoxyphenylsilane",
    "cn_name": "苯基三甲氧基硅烷;",
    "alternate_name": "Benzene, (trimethoxysilyl)-;Silane, trimethoxyphenyl-;(Trimethoxysilyl)benzene;Phenyltrimethoxysilane;Trimethoxyphenylsilane;A 153;Z 6071;KBM 103;P 0330;PTS 31;A 153 (silane derivative);AY 43-040;TSL 8173;LS 2750;PTMS;PhTMO;Huls/ Petrarch 04330;Z 6124;X 40-175;LS 2570;PO 330;PhTMS;NSC 93925;AZ 6207;Dynasylan 9165;DC 6124;SiSiB PC 8131;Z 6125;Geniosil XL 70;KH 610;KH 610 (coupling agent);KH 631;OFS 6124;Xiameter OFS 6124;R 00602;KH 221;CG-P 13;Geniosil PTM",
    "duplicated_cas_no": "46143-12-8;155684-43-8;1894173-42-2",
    "SMILES": "[Si](OC)(OC)(OC)C1=CC=CC=C1",
    "meta_data": {
        "InChI": "InChI=1S/C9H14O3Si/c1-10-13(11-2,12-3)9-7-5-4-6-8-9/h4-8H,1-3H3",
        "InChIKey": null,
        "Canonical SMILES": "O(C)[Si](OC)(OC)C=1C=CC=CC1",
        "Molecular Formula": "C<sub>9</sub>H<sub>14</sub>O<sub>3</sub>Si",
        "Molecular Mass": "198.29",
        "Boiling Point": "211 °C",
        "Melting Point": "-25 °C",
        "Density": "1.064 g/cm³"
    }
}