{
    "cas_no": "34654-80-3",
    "key_name": "6-[(3-Hydroxypropyl)amino]-1,3-dimethyl-2,4(1<em>H</em>,3<em>H</em>)-pyrimidinedione",
    "cn_name": "4-(3-羟丙基氨基)-1,3-二甲基脲嘧啶;",
    "alternate_name": "2,4(1<em>H</em>,3<em>H</em>)-Pyrimidinedione, 6-[(3-hydroxypropyl)amino]-1,3-dimethyl-;6-[(3-Hydroxypropyl)amino]-1,3-dimethyl-2,4(1<em>H</em>,3<em>H</em>)-pyrimidinedione;4-(3-Hydroxypropylamino)-1,3-dimethyluracil;1,3-Dimethyl-4-(γ-hydroxypropylamino)uracil",
    "duplicated_cas_no": "",
    "SMILES": "N(CCCO)C=1N(C)C(=O)N(C)C(=O)C1",
    "meta_data": {
        "InChI": "InChI=1S/C9H15N3O3/c1-11-7(10-4-3-5-13)6-8(14)12(2)9(11)15/h6,10,13H,3-5H2,1-2H3",
        "InChIKey": null,
        "Canonical SMILES": "O=C1C=C(NCCCO)N(C(=O)N1C)C",
        "Molecular Formula": "C<sub>9</sub>H<sub>15</sub>N<sub>3</sub>O<sub>3</sub>",
        "Molecular Mass": "213.23",
        "Melting Point": "148-150 °C"
    }
}