{
    "cas_no": "51596-11-3",
    "key_name": "Milbemycin A<sub>4</sub>",
    "cn_name": null,
    "alternate_name": "Milbemycin B, 5-<em>O</em>-demethyl-28-deoxy-6,28-epoxy-25-ethyl-, (6<em>R</em>,25<em>R</em>)-;Spiro[11,15-methano-2<em>H</em>,7<em>H</em>,13<em>H</em>-furo[4,3,2-<em>pq</em>][2,6]benzodioxacyclooctadecin-13,2′-[2<em>H</em>]pyran], milbemycin B deriv.;(6<em>R</em>,25<em>R</em>)-5-<em>O</em>-Demethyl-28-deoxy-6,28-epoxy-25-ethylmilbemycin B;Antibiotic B 41A4;Milbemycin α<sub>3</sub>;Milbemycin A<sub>4</sub>;Emamectin A<sub>4</sub>",
    "duplicated_cas_no": "56197-02-5",
    "SMILES": "",
    "meta_data": {
        "InChI": "",
        "InChIKey": null,
        "Canonical SMILES": "",
        "Molecular Formula": "C<sub>32</sub>H<sub>46</sub>O<sub>7</sub>",
        "Molecular Mass": "542.70",
        "Melting Point": "213.5 °C"
    }
}