{
    "cas_no": "79660-46-1",
    "key_name": "Ethyl 6,7,8-trifluoro-1,4-dihydro-4-oxoquinoline-3-carboxylate",
    "cn_name": "6,7,8-三氟-1,4-二氢-4-氧代-3-喹啉羧酸乙酯;",
    "alternate_name": "3-Quinolinecarboxylic acid, 6,7,8-trifluoro-1,4-dihydro-4-oxo-, ethyl ester;DM 7;Ethyl 6,7,8-trifluoro-1,4-dihydro-4-oxoquinoline-3-carboxylate;DM 7 (pharmaceutical)",
    "duplicated_cas_no": "",
    "SMILES": "O=C1C=2C(NC=C1C(OCC)=O)=C(F)C(F)=C(F)C2",
    "meta_data": {
        "InChI": "InChI=1S/C12H8F3NO3/c1-2-19-12(18)6-4-16-10-5(11(6)17)3-7(13)8(14)9(10)15/h3-4H,2H2,1H3,(H,16,17)",
        "InChIKey": null,
        "Canonical SMILES": "O=C(OCC)C1=CNC2=C(F)C(F)=C(F)C=C2C1=O",
        "Molecular Formula": "C<sub>12</sub>H<sub>8</sub>F<sub>3</sub>NO<sub>3</sub>",
        "Molecular Mass": "271.19",
        "Melting Point": "279-280 °C (sublm)"
    }
}