{
    "cas_no": "2767-90-0",
    "key_name": "4-Piperidinopyridine",
    "cn_name": "4-哌啶基吡啶; 1-吡啶-4-基哌啶;",
    "alternate_name": "Pyridine, 4-(1-piperidinyl)-;Piperidine, 1-(4-pyridyl)-;4-(1-Piperidinyl)pyridine;4-Piperidinopyridine;1-(4-Pyridyl)piperidine",
    "duplicated_cas_no": "",
    "SMILES": "C=1(C=CN=CC1)N2CCCCC2",
    "meta_data": {
        "InChI": "InChI=1S/C10H14N2/c1-2-8-12(9-3-1)10-4-6-11-7-5-10/h4-7H,1-3,8-9H2",
        "InChIKey": null,
        "Canonical SMILES": "N=1C=CC(=CC1)N2CCCCC2",
        "Molecular Formula": "C<sub>10</sub>H<sub>14</sub>N<sub>2</sub>",
        "Molecular Mass": "162.23",
        "Boiling Point": "164 °C @ Press: 13 Torr",
        "Melting Point": "80 °C"
    }
}