{
    "cas_no": "2449-05-0",
    "key_name": "1,2-Bis(phenylmethyl) 1,2-diazenedicarboxylate",
    "cn_name": "偶氮二甲酸二苄酯;",
    "alternate_name": "1,2-Diazenedicarboxylic acid, 1,2-bis(phenylmethyl) ester;Formic acid, azodi-, dibenzyl ester;Diazenedicarboxylic acid, bis(phenylmethyl) ester;1,2-Bis(phenylmethyl) 1,2-diazenedicarboxylate;Dibenzyl azodicarboxylate;NSC 620564;Azodicarboxylic acid dibenzyl ester",
    "duplicated_cas_no": "851393-06-1",
    "SMILES": "C(OC(N=NC(OCC1=CC=CC=C1)=O)=O)C2=CC=CC=C2",
    "meta_data": {
        "InChI": "InChI=1S/C16H14N2O4/c19-15(21-11-13-7-3-1-4-8-13)17-18-16(20)22-12-14-9-5-2-6-10-14/h1-10H,11-12H2",
        "InChIKey": null,
        "Canonical SMILES": "O=C(N=NC(=O)OCC=1C=CC=CC1)OCC=2C=CC=CC2",
        "Molecular Formula": "C<sub>16</sub>H<sub>14</sub>N<sub>2</sub>O<sub>4</sub>",
        "Molecular Mass": "298.29",
        "Melting Point": "46.5-47 °C"
    }
}