{
    "cas_no": "97963-62-7",
    "key_name": "5-(Difluoromethoxy)-2-mercapto-1<em>H</em>-benzimidazole",
    "cn_name": "5-二氟甲氧基-2-巯基-1H-苯并咪唑;",
    "alternate_name": "2<em>H</em>-Benzimidazole-2-thione, 5-(difluoromethoxy)-1,3-dihydro-;5-(Difluoromethoxy)-1,3-dihydro-2<em>H</em>-benzimidazole-2-thione;5-(Difluoromethoxy)-2-mercapto-1<em>H</em>-benzimidazole;5-Difluoromethoxy-2-mercaptobenzimidazole;2-Mercapto-5-difluoromethoxy-1<em>H</em>-benzimidazole;SKA 47",
    "duplicated_cas_no": "",
    "SMILES": "O(C(F)F)C=1C=C2C(=CC1)NC(=S)N2",
    "meta_data": {
        "InChI": "InChI=1S/C8H6F2N2OS/c9-7(10)13-4-1-2-5-6(3-4)12-8(14)11-5/h1-3,7H,(H2,11,12,14)",
        "InChIKey": null,
        "Canonical SMILES": "FC(F)OC1=CC=C2NC(=S)NC2=C1",
        "Molecular Formula": "C<sub>8</sub>H<sub>6</sub>F<sub>2</sub>N<sub>2</sub>OS",
        "Molecular Mass": "216.21",
        "Melting Point": "141-161 °C (decomp)"
    }
}