{
    "cas_no": "82-08-6",
    "key_name": "Rottlerin",
    "cn_name": "粗糠柴苦素;",
    "alternate_name": "2-Propen-1-one, 1-[6-[(3-acetyl-2,4,6-trihydroxy-5-methylphenyl)methyl]-5,7-dihydroxy-2,2-dimethyl-2<em>H</em>-1-benzopyran-8-yl]-3-phenyl-, (2<em>E</em>)-;Rottlerin;Acetophenone, 3′-[(8-cinnamoyl-5,7-dihydroxy-2,2-dimethyl-2<em>H</em>-1-benzopyran-6-yl)methyl]-2′,4′,6′-trihydroxy-5′-methyl-;2-Propen-1-one, 1-[6-[(3-acetyl-2,4,6-trihydroxy-5-methylphenyl)methyl]-5,7-dihydroxy-2,2-dimethyl-2<em>H</em>-1-benzopyran-8-yl]-3-phenyl-, (<em>E</em>)-;(2<em>E</em>)-1-[6-[(3-Acetyl-2,4,6-trihydroxy-5-methylphenyl)methyl]-5,7-dihydroxy-2,2-dimethyl-2<em>H</em>-1-benzopyran-8-yl]-3-phenyl-2-propen-1-one;NSC 56346;NSC 94525;Mallotoxin;PKC-δ/PKC-θ inhibitor",
    "duplicated_cas_no": "1402-21-7",
    "SMILES": "C(/C=C/C1=CC=CC=C1)(=O)C2=C3C(=C(O)C(CC4=C(O)C(C(C)=O)=C(O)C(C)=C4O)=C2O)C=CC(C)(C)O3",
    "meta_data": {
        "InChI": "InChI=1S/C30H28O8/c1-15-24(33)19(27(36)22(16(2)31)25(15)34)14-20-26(35)18-12-13-30(3,4)38-29(18)23(28(20)37)21(32)11-10-17-8-6-5-7-9-17/h5-13,33-37H,14H2,1-4H3/b11-10+",
        "InChIKey": null,
        "Canonical SMILES": "O=C(C=CC=1C=CC=CC1)C2=C(O)C(=C(O)C=3C=CC(OC32)(C)C)CC=4C(O)=C(C(=O)C)C(O)=C(C4O)C",
        "Molecular Formula": "C<sub>30</sub>H<sub>28</sub>O<sub>8</sub>",
        "Molecular Mass": "516.54",
        "Melting Point": "212 °C"
    }
}