{
    "cas_no": "2799-07-7",
    "key_name": "<em>S</em>-Trityl-<span class=\"text-smallcaps\">L</span>-cysteine",
    "cn_name": "S-三苯甲基-L-半胱氨酸;",
    "alternate_name": "<span class=\"text-smallcaps\">L</span>-Cysteine, <em>S</em>-(triphenylmethyl)-;Alanine, 3-(tritylthio)-, <span class=\"text-smallcaps\">L</span>-;<em>S</em>-(Triphenylmethyl)-<span class=\"text-smallcaps\">L</span>-cysteine;<em>S</em>-Trityl-<span class=\"text-smallcaps\">L</span>-cysteine;NSC 83265;3-Tritylthio-<span class=\"text-smallcaps\">L</span>-alanine;Tritylthioalanine;<em>S</em>-Tritylcysteine;<em>S</em>-Trityl-(<em>R</em>)-cysteine;(2R)-2-Amino-3-[(triphenylmethyl)thio]propanoic acid;(2R)-2-Azaniumyl-3-tritylsulfanylpropanoate;(2R)-2-Amino-3-[(triphenylmethyl)sulfanyl]propanoic acid",
    "duplicated_cas_no": "910544-70-6",
    "SMILES": "C(SC[C@@H](C(O)=O)N)(C1=CC=CC=C1)(C2=CC=CC=C2)C3=CC=CC=C3",
    "meta_data": {
        "InChI": "InChI=1S/C22H21NO2S/c23-20(21(24)25)16-26-22(17-10-4-1-5-11-17,18-12-6-2-7-13-18)19-14-8-3-9-15-19/h1-15,20H,16,23H2,(H,24,25)/t20-/m0/s1",
        "InChIKey": null,
        "Canonical SMILES": "O=C(O)C(N)CSC(C=1C=CC=CC1)(C=2C=CC=CC2)C=3C=CC=CC3",
        "Molecular Formula": "C<sub>22</sub>H<sub>21</sub>NO<sub>2</sub>S",
        "Molecular Mass": "363.47",
        "Melting Point": "182 °C (decomp)"
    }
}