{
    "cas_no": "524-17-4",
    "key_name": "Dauricine",
    "cn_name": "蝙蝠葛碱;",
    "alternate_name": "Phenol, 4-[[(1<em>R</em>)-1,2,3,4-tetrahydro-6,7-dimethoxy-2-methyl-1-isoquinolinyl]methyl]-2-[4-[[(1<em>R</em>)-1,2,3,4-tetrahydro-6,7-dimethoxy-2-methyl-1-isoquinolinyl]methyl]phenoxy]-;Dauricine;Phenol, 4-[(1,2,3,4-tetrahydro-6,7-dimethoxy-2-methyl-1-isoquinolinyl)methyl]-2-[4-[(1,2,3,4-tetrahydro-6,7-dimethoxy-2-methyl-1-isoquinolinyl)methyl]phenoxy]-, [<em>R</em>-(<em>R</em>*,<em>R</em>*)]-;4-[[(1<em>R</em>)-1,2,3,4-Tetrahydro-6,7-dimethoxy-2-methyl-1-isoquinolinyl]methyl]-2-[4-[[(1<em>R</em>)-1,2,3,4-tetrahydro-6,7-dimethoxy-2-methyl-1-isoquinolinyl]methyl]phenoxy]phenol;NSC 36413",
    "duplicated_cas_no": "1414-86-4;28639-26-1",
    "SMILES": "C([C@@H]1C=2C(=CC(OC)=C(OC)C2)CCN1C)C3=CC(OC4=CC=C(C[C@@H]5C=6C(=CC(OC)=C(OC)C6)CCN5C)C=C4)=C(O)C=C3",
    "meta_data": {
        "InChI": "InChI=1S/C38H44N2O6/c1-39-15-13-26-20-35(42-3)37(44-5)22-29(26)31(39)17-24-7-10-28(11-8-24)46-34-19-25(9-12-33(34)41)18-32-30-23-38(45-6)36(43-4)21-27(30)14-16-40(32)2/h7-12,19-23,31-32,41H,13-18H2,1-6H3/t31-,32-/m1/s1",
        "InChIKey": null,
        "Canonical SMILES": "OC1=CC=C(C=C1OC2=CC=C(C=C2)CC3C4=CC(OC)=C(OC)C=C4CCN3C)CC5C6=CC(OC)=C(OC)C=C6CCN5C",
        "Molecular Formula": "C<sub>38</sub>H<sub>44</sub>N<sub>2</sub>O<sub>6</sub>",
        "Molecular Mass": "624.77",
        "Melting Point": "115 °C"
    }
}