{
    "cas_no": "539-30-0",
    "key_name": "Benzyl ethyl ether",
    "cn_name": "苄基乙醚;(乙氧基甲基)苯;",
    "alternate_name": "Benzene, (ethoxymethyl)-;Ether, benzyl ethyl;(Ethoxymethyl)benzene;Benzyl ethyl ether;Benzyl ethyl oxide;Ethyl benzyl ether;NSC 8066",
    "duplicated_cas_no": "",
    "SMILES": "C(OCC)C1=CC=CC=C1",
    "meta_data": {
        "InChI": "InChI=1S/C9H12O/c1-2-10-8-9-6-4-3-5-7-9/h3-7H,2,8H2,1H3",
        "InChIKey": null,
        "Canonical SMILES": "O(CC=1C=CC=CC1)CC",
        "Molecular Formula": "C<sub>9</sub>H<sub>12</sub>O",
        "Molecular Mass": "136.19",
        "Boiling Point": "186 °C",
        "Density": "0.9433 g/cm³ @ Temp: 19 °C"
    }
}