{
    "cas_no": "86978-24-7",
    "key_name": "(α<em>Z</em>)-2-[[(1,1-Dimethylethoxy)carbonyl]amino]-α-propylidene-4-thiazoleacetic acid",
    "cn_name": "(Z)-2-(2-叔丁氧羰基氨基噻唑-4-基)-2-戊烯酸;",
    "alternate_name": "4-Thiazoleacetic acid, 2-[[(1,1-dimethylethoxy)carbonyl]amino]-α-propylidene-, (α<em>Z</em>)-;4-Thiazoleacetic acid, 2-[[(1,1-dimethylethoxy)carbonyl]amino]-α-propylidene-, (<em>Z</em>)-;(α<em>Z</em>)-2-[[(1,1-Dimethylethoxy)carbonyl]amino]-α-propylidene-4-thiazoleacetic acid",
    "duplicated_cas_no": "",
    "SMILES": "C(=C\\CC)(\\C(O)=O)/C=1N=C(NC(OC(C)(C)C)=O)SC1",
    "meta_data": {
        "InChI": "InChI=1S/C13H18N2O4S/c1-5-6-8(10(16)17)9-7-20-11(14-9)15-12(18)19-13(2,3)4/h6-7H,5H2,1-4H3,(H,16,17)(H,14,15,18)/b8-6-",
        "InChIKey": null,
        "Canonical SMILES": "O=C(O)C(=CCC)C=1N=C(SC1)NC(=O)OC(C)(C)C",
        "Molecular Formula": "C<sub>13</sub>H<sub>18</sub>N<sub>2</sub>O<sub>4</sub>S",
        "Molecular Mass": "298.36",
        "Melting Point": "167-169 °C"
    }
}