{
    "cas_no": "4513-56-8",
    "key_name": "2-Bromoethyl methacrylate",
    "cn_name": null,
    "alternate_name": "2-Propenoic acid, 2-methyl-, 2-bromoethyl ester;Methacrylic acid, 2-bromoethyl ester;Ethanol, 2-bromo-, methacrylate;2-Bromoethyl methacrylate;NSC 18594",
    "duplicated_cas_no": "2248122-04-3",
    "SMILES": "C(C(C)=C)(OCCBr)=O",
    "meta_data": {
        "InChI": "InChI=1S/C6H9BrO2/c1-5(2)6(8)9-4-3-7/h1,3-4H2,2H3",
        "InChIKey": null,
        "Canonical SMILES": "O=C(OCCBr)C(=C)C",
        "Molecular Formula": "C<sub>6</sub>H<sub>9</sub>BrO<sub>2</sub>",
        "Molecular Mass": "193.04",
        "Boiling Point": "80 °C @ Press: 16 Torr",
        "Melting Point": "63-65 °C",
        "Density": "1.3994 g/cm³ @ Temp: 20 °C"
    }
}