{
    "cas_no": "101-05-3",
    "key_name": "Triazin",
    "cn_name": "敌菌灵;2,4二氯-6-(2-氯代苯胺基)均三氮苯;敌菌灵;敌菌灵可湿性粉剂;2,4-二氯-6-(2-氯代苯氨基)-1,3,5-三嗪;",
    "alternate_name": "1,3,5-Triazin-2-amine, 4,6-dichloro-<em>N</em>-(2-chlorophenyl)-;<em>s</em>-Triazine, 2,4-dichloro-6-(<em>o</em>-chloroanilino)-;4,6-Dichloro-<em>N</em>-(2-chlorophenyl)-1,3,5-triazin-2-amine;B 622;2,4-Dichloro-6-<em>o</em>-chloranilino-<em>s</em>-triazine;2,4-Dichloro-6-(<em>o</em>-chloroanilino)-<em>s</em>-triazine;2,4-Dichloro-6-(2-chloroanilino)-1,3,5-triazine;Kemate;Dyrene;2,4-Dichloro-6-(2-chloranilino)-<em>s</em>-triazine;Dyrene 50W;Triazin;2-(<em>o</em>-Chloroanilino)-4,6-dichloro-1,3,5-triazine;Anilazine;2,4-Dichloro-6-(<em>o</em>-chloroanilino)-1,3,5-triazine;2-(2-Chloroanilino)-4,6-dichloro-<em>s</em>-triazine;2-(2′-Chloroanilino)-4,6-dichloro-<em>s</em>-triazine;Triazine (pesticide);Triazine;Anilazin;Bortrysan;Zinochlor;2,4-Dichloro-6-(<em>o</em>-chlorophenyl)amino-<em>s</em>-triazine;Aniyaline;Dyrene Flussig;NSC 3851",
    "duplicated_cas_no": "1135442-71-5",
    "SMILES": "N(C=1N=C(Cl)N=C(Cl)N1)C2=C(Cl)C=CC=C2",
    "meta_data": {
        "InChI": "InChI=1S/C9H5Cl3N4/c10-5-3-1-2-4-6(5)13-9-15-7(11)14-8(12)16-9/h1-4H,(H,13,14,15,16)",
        "InChIKey": null,
        "Canonical SMILES": "ClC=1N=C(Cl)N=C(N1)NC=2C=CC=CC2Cl",
        "Molecular Formula": "C<sub>9</sub>H<sub>5</sub>Cl<sub>3</sub>N<sub>4</sub>",
        "Molecular Mass": "275.52",
        "Melting Point": "159-160 °C",
        "Density": "1.8 g/cm³ @ Temp: 20 °C"
    }
}