{
    "cas_no": "78-26-2",
    "key_name": "2-Methyl-2-propyl-1,3-propanediol",
    "cn_name": "2-甲基-2-丙基-1,3-丙二醇;",
    "alternate_name": "1,3-Propanediol, 2-methyl-2-propyl-;2-Methyl-2-propyl-1,3-propanediol;NSC 26233;2-Propyl-2-methyl-1,3-propanediol;2-Methyl-2-(1-propyl)-1,3-propanediol",
    "duplicated_cas_no": "",
    "SMILES": "C(CCC)(CO)(CO)C",
    "meta_data": {
        "InChI": "InChI=1S/C7H16O2/c1-3-4-7(2,5-8)6-9/h8-9H,3-6H2,1-2H3",
        "InChIKey": null,
        "Canonical SMILES": "OCC(C)(CO)CCC",
        "Molecular Formula": "C<sub>7</sub>H<sub>16</sub>O<sub>2</sub>",
        "Molecular Mass": "132.20",
        "Boiling Point": "234 °C",
        "Melting Point": "62.5 °C"
    }
}