{
    "cas_no": "74863-84-6",
    "key_name": "Argatroban",
    "cn_name": "阿加曲班;(2R,4R)-4-甲基-1-[N-[(3-甲基-1,2,3,4-四氢-8-喹啉基)磺酰]-L-精氨酰]-2-哌啶甲酸;",
    "alternate_name": "2-Piperidinecarboxylic acid, 1-[(2<em>S</em>)-5-[(aminoiminomethyl)amino]-1-oxo-2-[[(1,2,3,4-tetrahydro-3-methyl-8-quinolinyl)sulfonyl]amino]pentyl]-4-methyl-, (2<em>R</em>,4<em>R</em>)-;2-Piperidinecarboxylic acid, 1-[5-[(aminoiminomethyl)amino]-1-oxo-2-[[(1,2,3,4-tetrahydro-3-methyl-8-quinolinyl)sulfonyl]amino]pentyl]-4-methyl-, [2<em>R</em>-[1(2<em>S</em>*),2α,4β]]-[<em>partial</em>]-;(2<em>R</em>,4<em>R</em>)-1-[(2<em>S</em>)-5-[(Aminoiminomethyl)amino]-1-oxo-2-[[(1,2,3,4-tetrahydro-3-methyl-8-quinolinyl)sulfonyl]amino]pentyl]-4-methyl-2-piperidinecarboxylic acid;MD 805;MCI 9038;Argipidine;Argatroban;Novastan;OM 805;GN 1600;Slonnon;DK 7419;MQPA;Acova;Argipidin;Argatra",
    "duplicated_cas_no": "78238-51-4;169554-65-8;172902-92-0",
    "SMILES": "S(N[C@H](C(=O)N1[C@@H](C(O)=O)C[C@H](C)CC1)CCCNC(=N)N)(=O)(=O)C2=C3C(=CC=C2)CC(C)CN3",
    "meta_data": {
        "InChI": "InChI=1S/C23H36N6O5S/c1-14-8-10-29(18(12-14)22(31)32)21(30)17(6-4-9-26-23(24)25)28-35(33,34)19-7-3-5-16-11-15(2)13-27-20(16)19/h3,5,7,14-15,17-18,27-28H,4,6,8-13H2,1-2H3,(H,31,32)(H4,24,25,26)/t14-,15?,17+,18-/m1/s1",
        "InChIKey": null,
        "Canonical SMILES": "O=C(O)C1N(C(=O)C(NS(=O)(=O)C=2C=CC=C3C2NCC(C)C3)CCCNC(=N)N)CCC(C)C1",
        "Molecular Formula": "C<sub>23</sub>H<sub>36</sub>N<sub>6</sub>O<sub>5</sub>S",
        "Molecular Mass": "508.63",
        "Melting Point": "188-191 °C"
    }
}