{
    "cas_no": "223673-61-8",
    "key_name": "Mirabegron",
    "cn_name": null,
    "alternate_name": "4-Thiazoleacetamide, 2-amino-<em>N</em>-[4-[2-[[(2<em>R</em>)-2-hydroxy-2-phenylethyl]amino]ethyl]phenyl]-;2-Amino-<em>N</em>-[4-[2-[[(2<em>R</em>)-2-hydroxy-2-phenylethyl]amino]ethyl]phenyl]-4-thiazoleacetamide;Mirabegron;YM 178;Betanis;Myrbetriq;2-(2-Amino-1,3-thiazol-4-yl)-<em>N</em>-[4-[2-[((2<em>R</em>)-2-hydroxy-2-phenylethyl)amino]ethyl]phenyl]acetamide;(<em>R</em>)-Mirabegron;2-(2-Amino-1,3-thiazol-4-yl)-<em>N</em>-[4-[2-[[(2R)-2-hydroxy-2-phenylethyl]amino]ethyl]phenyl]acetamide;Betmiga",
    "duplicated_cas_no": "928324-05-4",
    "SMILES": "N(C(CC1=CSC(N)=N1)=O)C2=CC=C(CCNC[C@H](O)C3=CC=CC=C3)C=C2",
    "meta_data": {
        "InChI": "InChI=1S/C21H24N4O2S/c22-21-25-18(14-28-21)12-20(27)24-17-8-6-15(7-9-17)10-11-23-13-19(26)16-4-2-1-3-5-16/h1-9,14,19,23,26H,10-13H2,(H2,22,25)(H,24,27)/t19-/m0/s1",
        "InChIKey": null,
        "Canonical SMILES": "O=C(NC1=CC=C(C=C1)CCNCC(O)C=2C=CC=CC2)CC=3N=C(SC3)N",
        "Molecular Formula": "C<sub>21</sub>H<sub>24</sub>N<sub>4</sub>O<sub>2</sub>S",
        "Molecular Mass": "396.51",
        "Melting Point": "140-142 °C"
    }
}