{
    "cas_no": "36343-05-2",
    "key_name": "<em>N</em>-Methylheptylamine",
    "cn_name": "N-庚基甲胺;N-甲基庚胺;",
    "alternate_name": "1-Heptanamine, <em>N</em>-methyl-;Heptylamine, <em>N</em>-methyl-;<em>N</em>-Methyl-1-heptanamine;<em>N</em>-Methylheptylamine;Heptylmethylamine;<em>N</em>-Heptyl-<em>N</em>-methylamine;NSC 96468",
    "duplicated_cas_no": "",
    "SMILES": "C(CCCC)CCNC",
    "meta_data": {
        "InChI": "InChI=1S/C8H19N/c1-3-4-5-6-7-8-9-2/h9H,3-8H2,1-2H3",
        "InChIKey": null,
        "Canonical SMILES": "N(C)CCCCCCC",
        "Molecular Formula": "C<sub>8</sub>H<sub>19</sub>N",
        "Molecular Mass": "129.24",
        "Boiling Point": "168 °C",
        "Density": "0.7843 g/cm³ @ Temp: 0 °C"
    }
}