{
    "cas_no": "6008-36-2",
    "key_name": "Nonanophenone",
    "cn_name": "正壬基酰苯;",
    "alternate_name": "1-Nonanone, 1-phenyl-;Nonanophenone;Pelargonophenone;1-Phenyl-1-nonanone;Pelargonylbenzene;Octyl phenyl ketone;Nonanoylbenzene;<em>n</em>-Octyl phenyl ketone",
    "duplicated_cas_no": "",
    "SMILES": "C(CCCCCCCC)(=O)C1=CC=CC=C1",
    "meta_data": {
        "InChI": "InChI=1S/C15H22O/c1-2-3-4-5-6-10-13-15(16)14-11-8-7-9-12-14/h7-9,11-12H,2-6,10,13H2,1H3",
        "InChIKey": null,
        "Canonical SMILES": "O=C(C=1C=CC=CC1)CCCCCCCC",
        "Molecular Formula": "C<sub>15</sub>H<sub>22</sub>O",
        "Molecular Mass": "218.33",
        "Boiling Point": "298-330 °C",
        "Melting Point": "46 °C"
    }
}