{
    "cas_no": "7211-54-3",
    "key_name": "1-Propanethiol, 3-amino-, hydrochloride",
    "cn_name": null,
    "alternate_name": "1-Propanethiol, 3-amino-, hydrochloride;3-Mercaptopropylamine hydrochloride;Homocysteamine hydrochloride;3-Aminopropanethiol hydrochloride;3-Amino-1-propanethiol hydrochloride",
    "duplicated_cas_no": "",
    "SMILES": "C(CN)CS.Cl",
    "meta_data": {
        "InChI": "InChI=1S/C3H9NS.ClH/c4-2-1-3-5;/h5H,1-4H2;1H",
        "InChIKey": null,
        "Canonical SMILES": "Cl.SCCCN",
        "Molecular Formula": "C<sub>3</sub>H<sub>9</sub>NS.ClH",
        "Molecular Mass": "",
        "Melting Point": "79-80 °C"
    }
}