{
    "cas_no": "636-80-6",
    "key_name": "2-Pyridinecarboxylic acid, hydrochloride (1:1)",
    "cn_name": "吡啶羧酸盐酸盐;吡啶-2-羧酸盐酸盐;",
    "alternate_name": "2-Pyridinecarboxylic acid, hydrochloride (1:1);Picolinic acid, hydrochloride;2-Pyridinecarboxylic acid, hydrochloride;α-Picolinic acid hydrochloride;2-Picolinic acid hydrochloride",
    "duplicated_cas_no": "",
    "SMILES": "C(O)(=O)C1=CC=CC=N1.Cl",
    "meta_data": {
        "InChI": "InChI=1S/C6H5NO2.ClH/c8-6(9)5-3-1-2-4-7-5;/h1-4H,(H,8,9);1H",
        "InChIKey": null,
        "Canonical SMILES": "Cl.O=C(O)C1=NC=CC=C1",
        "Molecular Formula": "C<sub>6</sub>H<sub>5</sub>NO<sub>2</sub>.ClH",
        "Molecular Mass": "",
        "Melting Point": "229 °C"
    }
}