{
    "cas_no": "11141-17-6",
    "key_name": "Azadirachtin",
    "cn_name": null,
    "alternate_name": "1<em>H</em>,7<em>H</em>-Naphtho[1,8-<em>bc</em>:4,4a-<em>c</em>′]difuran-5,10a(8<em>H</em>)-dicarboxylic acid, 10-(acetyloxy)octahydro-3,5-dihydroxy-4-methyl-8-[[(2<em>E</em>)-2-methyl-1-oxo-2-buten-1-yl]oxy]-4-[(1a<em>R</em>,2<em>S</em>,3a<em>S</em>,6a<em>S</em>,7<em>S</em>,7a<em>S</em>)-3a,6a,7,7a-tetrahydro-6a-hydroxy-7a-methyl-2,7-methanofuro[2,3-<em>b</em>]oxireno[<em>e</em>]oxepin-1a(2<em>H</em>)-yl]-, 5,10a-dimethyl ester, (2a<em>R</em>,3<em>S</em>,4<em>S</em>,4a<em>R</em>,5<em>S</em>,7a<em>S</em>,8<em>S</em>,10<em>R</em>,10a<em>S</em>,10b<em>R</em>)-;1<em>H</em>,7<em>H</em>-Naphtho[1,8-<em>bc</em>:4,4a-<em>c</em>′]difuran-5,10a(8<em>H</em>)-dicarboxylic acid, 10-(acetyloxy)octahydro-3,5-dihydroxy-4-methyl-8-[(2-methyl-1-oxo-2-butenyl)oxy]-4-(3a,6a,7,7a-tetrahydro-6a-hydroxy-7a-methyl-2,7-methanofuro[2,3-<em>b</em>]oxireno[<em>e</em>]oxepin-1a(2<em>H</em>)-yl)-, dimethyl ester, [2a<em>R</em>-[2aα,3β,4β(1a<em>R</em>*,2<em>S</em>*,3a<em>S</em>*,6a<em>S</em>*,7<em>S</em>*,7a<em>S</em>*),4aβ,5α,7a<em>S</em>*,8β(<em>E</em>),10β,10aα,10bβ]]-;1<em>H</em>,7<em>H</em>-Naphtho[1,8-<em>bc</em>:4,4a-<em>c</em>′]difuran-5,10a(8<em>H</em>)-dicarboxylic acid, 10-(acetyloxy)octahydro-3,5-dihydroxy-4-methyl-8-[[(2<em>E</em>)-2-methyl-1-oxo-2-butenyl]oxy]-4-[(1a<em>R</em>,2<em>S</em>,3a<em>S</em>,6a<em>S</em>,7<em>S</em>,7a<em>S</em>)-3a,6a,7,7a-tetrahydro-6a-hydroxy-7a-methyl-2,7-methanofuro[2,3-<em>b</em>]oxireno[<em>e</em>]oxepin-1a(2<em>H</em>)-yl]-, dimethyl ester, (2a<em>R</em>,3<em>S</em>,4<em>S</em>,4a<em>R</em>,5<em>S</em>,7a<em>S</em>,8<em>S</em>,10<em>R</em>,10a<em>S</em>,10b<em>R</em>)-;2,7-Methanofuro[2,3-<em>b</em>]oxireno[<em>e</em>]oxepin, 1<em>H</em>,7<em>H</em>-naphtho[1,8-<em>bc</em>:4,4a-<em>c</em>′]difuran-5,10a(8<em>H</em>)-dicarboxylic acid deriv.;Azadirachtin A;Azadirachtin;Azatin;Azatin EC;Align;Neemgold;NeemAzal F;NeemAzal W;NeemAzal T;BioNEEM;Suneem;Superneem;Neemazol;Nimbicidine;Oikos 25 plus;Oikos 323 Bio;Ecozin;Azatin XL;Safer BioNEEM;Oikos;Gronim;Nimurin;Ornazin;Azatin Magnum;NeemAzal T/S;NeemAzal;AzaMax;Biosal;Molt-X;Nimbecidine;Nimbecidine EC;Pestoneem;Neemseto;Neem Baan;Fortune Aza Technical;Fortune Aza;Riddance",
    "duplicated_cas_no": "55890-15-8;61812-38-2;95507-01-0;176087-48-2;176087-49-3;189284-01-3;672288-51-6",
    "SMILES": "C[C@]1([C@@]23[C@@](C)(O2)[C@]4(C[C@@]3(O[C@]5([C@]4(O)C=CO5)[H])[H])[H])[C@]6([C@@]7([C@]8([C@]([C@H]1O)(OC[C@]8(C(OC)=O)[C@H](OC(C)=O)C[C@@H]7OC(/C(=C/C)/C)=O)[H])[H])CO[C@@]6(C(OC)=O)O)[H]",
    "meta_data": {
        "InChI": "InChI=1S/C35H44O16/c1-8-15(2)24(38)49-18-12-19(48-16(3)36)32(26(39)43-6)13-46-21-22(32)31(18)14-47-34(42,27(40)44-7)25(31)29(4,23(21)37)35-20-11-17(30(35,5)51-35)33(41)9-10-45-28(33)50-20/h8-10,17-23,25,28,37,41-42H,11-14H2,1-7H3/b15-8+/t17-,18+,19-,20+,21-,22-,23-,25+,28+,29-,30+,31+,32+,33+,34+,35+/m1/s1",
        "InChIKey": null,
        "Canonical SMILES": "O=C(OC1CC(OC(=O)C)C2(C(=O)OC)COC3C(O)C(C)(C4C(O)(OCC14C32)C(=O)OC)C56OC6(C)C7CC5OC8OC=CC87O)C(=CC)C",
        "Molecular Formula": "C<sub>35</sub>H<sub>44</sub>O<sub>16</sub>",
        "Molecular Mass": "720.71",
        "Melting Point": "155-158 °C"
    }
}