{
    "cas_no": "612-12-4",
    "key_name": "α,α′-Dichloro-<em>o</em>-xylene",
    "cn_name": "邻二氯苄;",
    "alternate_name": "Benzene, 1,2-bis(chloromethyl)-;<em>o</em>-Xylene, α,α′-dichloro-;1,2-Bis(chloromethyl)benzene;α,α′-Dichloro-<em>o</em>-xylene;<em>o</em>-Xylylene dichloride;<em>o</em>-Bis(chloromethyl)benzene;<em>o</em>-Xylene-α,α′-dichloride;NSC 71934",
    "duplicated_cas_no": "",
    "SMILES": "C(Cl)C1=C(CCl)C=CC=C1",
    "meta_data": {
        "InChI": "InChI=1S/C8H8Cl2/c9-5-7-3-1-2-4-8(7)6-10/h1-4H,5-6H2",
        "InChIKey": null,
        "Canonical SMILES": "ClCC=1C=CC=CC1CCl",
        "Molecular Formula": "C<sub>8</sub>H<sub>8</sub>Cl<sub>2</sub>",
        "Molecular Mass": "175.06",
        "Boiling Point": "239.5 °C",
        "Melting Point": "55 °C",
        "Density": "1.37 g/cm³"
    }
}