{
    "cas_no": "5835-26-7",
    "key_name": "Isopimaric acid",
    "cn_name": null,
    "alternate_name": "1-Phenanthrenecarboxylic acid, 7-ethenyl-1,2,3,4,4a,4b,5,6,7,8,10,10a-dodecahydro-1,4a,7-trimethyl-, (1<em>R</em>,4a<em>R</em>,4b<em>S</em>,7<em>S</em>,10a<em>R</em>)-;Podocarp-7-en-15-oic acid, 13β-methyl-13-vinyl-, (-)-;Isopimaric acid;1-Phenanthrenecarboxylic acid, 7-ethenyl-1,2,3,4,4a,4b,5,6,7,8,10,10a-dodecahydro-1,4a,7-trimethyl-, [1<em>R</em>-(1α,4aβ,4bα,7α,10aα)]-;Podocarp-7-en-15-oic acid, 13β-methyl-13-vinyl-;(1<em>R</em>,4a<em>R</em>,4b<em>S</em>,7<em>S</em>,10a<em>R</em>)-7-Ethenyl-1,2,3,4,4a,4b,5,6,7,8,10,10a-dodecahydro-1,4a,7-trimethyl-1-phenanthrenecarboxylic acid;7,15-Isopimaradien-18-oic acid;Δ<sup>7,15</sup>-Isopimaric acid;(+)-Isopimaric acid;Isopimaric acid A",
    "duplicated_cas_no": "107631-59-4;7201-52-7",
    "SMILES": "C[C@@]12[C@]([C@@](C(O)=O)(C)CCC1)(CC=C3[C@@]2(CC[C@@](C=C)(C)C3)[H])[H]",
    "meta_data": {
        "InChI": "InChI=1S/C20H30O2/c1-5-18(2)12-9-15-14(13-18)7-8-16-19(15,3)10-6-11-20(16,4)17(21)22/h5,7,15-16H,1,6,8-13H2,2-4H3,(H,21,22)/t15-,16+,18-,19+,20+/m0/s1",
        "InChIKey": null,
        "Canonical SMILES": "O=C(O)C1(C)CCCC2(C)C3C(=CCC12)CC(C=C)(C)CC3",
        "Molecular Formula": "C<sub>20</sub>H<sub>30</sub>O<sub>2</sub>",
        "Molecular Mass": "302.45",
        "Melting Point": "160 °C"
    }
}