{
    "cas_no": "15883-20-2",
    "key_name": "2′,6′-Pipecoloxylidide",
    "cn_name": "N-(2\",6\"-二甲苯基)-2-哌啶甲酰胺;",
    "alternate_name": "2-Piperidinecarboxamide, <em>N</em>-(2,6-dimethylphenyl)-;2′,6′-Pipecoloxylidide;<em>N</em>-(2,6-Dimethylphenyl)-2-piperidinecarboxamide;2′,6′-Pipecolylxylidine;Desbutylbupivacaine;Debutylbupivacaine;<em>N</em>-Desbutylbupivacaine",
    "duplicated_cas_no": "78341-12-5",
    "SMILES": "N(C(=O)C1CCCCN1)C2=C(C)C=CC=C2C",
    "meta_data": {
        "InChI": "InChI=1S/C14H20N2O/c1-10-6-5-7-11(2)13(10)16-14(17)12-8-3-4-9-15-12/h5-7,12,15H,3-4,8-9H2,1-2H3,(H,16,17)",
        "InChIKey": null,
        "Canonical SMILES": "O=C(NC=1C(=CC=CC1C)C)C2NCCCC2",
        "Molecular Formula": "C<sub>14</sub>H<sub>20</sub>N<sub>2</sub>O",
        "Molecular Mass": "232.32",
        "Melting Point": "121 °C"
    }
}