{
    "cas_no": "2654-57-1",
    "key_name": "4-Methyl-1-phenyl-3-pyrazolidone",
    "cn_name": "1-苯基-4-甲基-3-吡唑烷酮;菲尼酮B;",
    "alternate_name": "3-Pyrazolidinone, 4-methyl-1-phenyl-;4-Methyl-1-phenyl-3-pyrazolidinone;Phenidone B;1-Phenyl-4-methyl-3-pyrazolidone;1-Phenyl-4-methyl-3-oxopyrazolidine;1-Phenyl-4-methyl-3-pyrazolidinone;4-Methyl-1-phenyl-3-pyrazolidone;NSC 96628;4-Methyl-1-phenyl-4,5-dihydro-1<em>H</em>-pyrazol-3-ol",
    "duplicated_cas_no": "",
    "SMILES": "CC1CN(NC1=O)C2=CC=CC=C2",
    "meta_data": {
        "InChI": "InChI=1S/C10H12N2O/c1-8-7-12(11-10(8)13)9-5-3-2-4-6-9/h2-6,8H,7H2,1H3,(H,11,13)",
        "InChIKey": null,
        "Canonical SMILES": "O=C1NN(C=2C=CC=CC2)CC1C",
        "Molecular Formula": "C<sub>10</sub>H<sub>12</sub>N<sub>2</sub>O",
        "Molecular Mass": "176.22",
        "Melting Point": "142.5-143 °C"
    }
}