{
    "cas_no": "102-24-9",
    "key_name": "Trimethoxyboroxine",
    "cn_name": "三甲氧基环硼氧烷;三甲氧基硼氧酯;",
    "alternate_name": "Boroxin, 2,4,6-trimethoxy-;Boroxin, trimethoxy-;2,4,6-Trimethoxyboroxin;Trimethoxyboroxin;Trimethoxyboroxine;Boric acid (H<sub>3</sub>B<sub>3</sub>O<sub>6</sub>), trimethyl ester;TMBX;NSC 56370;2,4,6-Trimethoxy-1,3,5,2,4,6-trioxatriborinane",
    "duplicated_cas_no": "",
    "SMILES": "O(C)B1OB(OC)OB(OC)O1",
    "meta_data": {
        "InChI": "InChI=1S/C3H9B3O6/c1-7-4-10-5(8-2)12-6(9-3)11-4/h1-3H3",
        "InChIKey": null,
        "Canonical SMILES": "O1B(OB(OB1OC)OC)OC",
        "Molecular Formula": "C<sub>3</sub>H<sub>9</sub>B<sub>3</sub>O<sub>6</sub>",
        "Molecular Mass": "173.53",
        "Boiling Point": "130 °C",
        "Melting Point": "10 °C"
    }
}