{
    "cas_no": "41730-79-4",
    "key_name": "1-(Methylsulfonyl)-2-imidazolidinone",
    "cn_name": "1-甲磺酰基-2-咪唑烷酮;",
    "alternate_name": "2-Imidazolidinone, 1-(methylsulfonyl)-;1-(Methylsulfonyl)-2-imidazolidinone;1-(Methylsulfonyl)-2-imidazolidin-2-one;1-Mesyl-2-imidazolidinone;1-Methanesulfonylimidazolidin-2-one",
    "duplicated_cas_no": "",
    "SMILES": "S(C)(=O)(=O)N1C(=O)NCC1",
    "meta_data": {
        "InChI": "InChI=1S/C4H8N2O3S/c1-10(8,9)6-3-2-5-4(6)7/h2-3H2,1H3,(H,5,7)",
        "InChIKey": null,
        "Canonical SMILES": "O=C1NCCN1S(=O)(=O)C",
        "Molecular Formula": "C<sub>4</sub>H<sub>8</sub>N<sub>2</sub>O<sub>3</sub>S",
        "Molecular Mass": "164.18",
        "Melting Point": "192-194 °C"
    }
}