{
    "cas_no": "1122-58-3",
    "key_name": "4-(Dimethylamino)pyridine",
    "cn_name": "4-二甲氨基吡啶;",
    "alternate_name": "4-Pyridinamine, <em>N</em>,<em>N</em>-dimethyl-;Pyridine, 4-(dimethylamino)-;<em>N</em>,<em>N</em>-Dimethyl-4-pyridinamine;4-(Dimethylamino)pyridine;<em>N</em>,<em>N</em>-Dimethyl-4-aminopyridine;γ-(Dimethylamino)pyridine;<em>p</em>-Dimethylaminopyridine;DMAP;4-DMAP;DMAP (catalyst);4-(<em>N</em>,<em>N</em>-Dimethylamino)pyridine;<em>N</em>,<em>N</em>-Dimethyl-4-pyridylamine;4DMAPy",
    "duplicated_cas_no": "2011746-50-0",
    "SMILES": "N(C)(C)C=1C=CN=CC1",
    "meta_data": {
        "InChI": "InChI=1S/C7H10N2/c1-9(2)7-3-5-8-6-4-7/h3-6H,1-2H3",
        "InChIKey": null,
        "Canonical SMILES": "N=1C=CC(=CC1)N(C)C",
        "Molecular Formula": "C<sub>7</sub>H<sub>10</sub>N<sub>2</sub>",
        "Molecular Mass": "122.17",
        "Boiling Point": "162 °C",
        "Melting Point": "112 °C"
    }
}