{
    "cas_no": "5527-94-6",
    "key_name": "1-Chloro-2-fluoro-4-methylbenzene",
    "cn_name": "3-氟-4-氯甲苯;4-氯-3-氟甲苯;",
    "alternate_name": "Benzene, 1-chloro-2-fluoro-4-methyl-;Toluene, 4-chloro-3-fluoro-;1-Chloro-2-fluoro-4-methylbenzene;4-Chloro-3-fluoromethylbenzene;3-Fluoro-4-chlorotoluene",
    "duplicated_cas_no": "",
    "SMILES": "FC1=C(Cl)C=CC(C)=C1",
    "meta_data": {
        "InChI": "InChI=1S/C7H6ClF/c1-5-2-3-6(8)7(9)4-5/h2-4H,1H3",
        "InChIKey": null,
        "Canonical SMILES": "FC1=CC(=CC=C1Cl)C",
        "Molecular Formula": "C<sub>7</sub>H<sub>6</sub>ClF",
        "Molecular Mass": "144.57",
        "Boiling Point": "157-158 °C"
    }
}