{
    "cas_no": "56814-11-0",
    "key_name": "2-Amino-<em>N</em>-cyclohexylbenzamide",
    "cn_name": null,
    "alternate_name": "Benzamide, 2-amino-<em>N</em>-cyclohexyl-;2-Amino-<em>N</em>-cyclohexylbenzamide",
    "duplicated_cas_no": "",
    "SMILES": "C(NC1CCCCC1)(=O)C2=C(N)C=CC=C2",
    "meta_data": {
        "InChI": "InChI=1S/C13H18N2O/c14-12-9-5-4-8-11(12)13(16)15-10-6-2-1-3-7-10/h4-5,8-10H,1-3,6-7,14H2,(H,15,16)",
        "InChIKey": null,
        "Canonical SMILES": "O=C(NC1CCCCC1)C=2C=CC=CC2N",
        "Molecular Formula": "C<sub>13</sub>H<sub>18</sub>N<sub>2</sub>O",
        "Molecular Mass": "218.29",
        "Melting Point": "153-155 °C"
    }
}