{
    "cas_no": "125464-42-8",
    "key_name": "Saclofen",
    "cn_name": "β-(氨基甲基)-4 氯代苯乙烷磺酸;",
    "alternate_name": "Benzeneethanesulfonic acid, β-(aminomethyl)-4-chloro-;β-(Aminomethyl)-4-chlorobenzeneethanesulfonic acid;Saclofen;3-Amino-2-(4-chlorophenyl)propane-1-sulfonic acid",
    "duplicated_cas_no": "134589-60-9",
    "SMILES": "C(CS(=O)(=O)O)(CN)C1=CC=C(Cl)C=C1",
    "meta_data": {
        "InChI": "InChI=1S/C9H12ClNO3S/c10-9-3-1-7(2-4-9)8(5-11)6-15(12,13)14/h1-4,8H,5-6,11H2,(H,12,13,14)",
        "InChIKey": null,
        "Canonical SMILES": "O=S(=O)(O)CC(C1=CC=C(Cl)C=C1)CN",
        "Molecular Formula": "C<sub>9</sub>H<sub>12</sub>ClNO<sub>3</sub>S",
        "Molecular Mass": "249.71",
        "Melting Point": "310-315 °C (decomp)"
    }
}