{
    "cas_no": "212322-56-0",
    "key_name": "<em>N</em>-[3-Amino-4-(methylamino)benzoyl]-<em>N</em>-2-pyridinyl-β-alanine ethyl ester",
    "cn_name": null,
    "alternate_name": "β-Alanine, <em>N</em>-[3-amino-4-(methylamino)benzoyl]-<em>N</em>-2-pyridinyl-, ethyl ester;<em>N</em>-[3-Amino-4-(methylamino)benzoyl]-<em>N</em>-2-pyridinyl-β-alanine ethyl ester;Ethyl 3-[(3-amino-4-methylaminobenzoyl)-(pyridin-2-yl)-amino]propanoate;Ethyl 3-[3-amino-4-(methylamino)-<em>N</em>-(pyridin-2-yl)benzoylamino]propanoate;Ethyl 3-[[3-amino-4-(methylamino)benzoyl](pyridin-2-yl)amino]propionate;3-[(3-Amino-4-methylamino-benzoyl)-pyridin-2-yl-amino]-propionic acid ethyl ester",
    "duplicated_cas_no": "2758118-10-2",
    "SMILES": "N(C(=O)C1=CC(N)=C(NC)C=C1)(CCC(OCC)=O)C2=CC=CC=N2",
    "meta_data": {
        "InChI": "InChI=1S/C18H22N4O3/c1-3-25-17(23)9-11-22(16-6-4-5-10-21-16)18(24)13-7-8-15(20-2)14(19)12-13/h4-8,10,12,20H,3,9,11,19H2,1-2H3",
        "InChIKey": null,
        "Canonical SMILES": "O=C(OCC)CCN(C1=NC=CC=C1)C(=O)C2=CC=C(NC)C(N)=C2",
        "Molecular Formula": "C<sub>18</sub>H<sub>22</sub>N<sub>4</sub>O<sub>3</sub>",
        "Molecular Mass": "342.39",
        "Melting Point": "103-104 °C"
    }
}