{
    "cas_no": "110-98-5",
    "key_name": "Bis(2-hydroxypropyl) ether",
    "cn_name": "一缩二丙二醇;双丙甘醇;二丙二醇;",
    "alternate_name": "2-Propanol, 1,1′-oxybis-;2-Propanol, 1,1′-oxydi-;1,1′-Oxybis[2-propanol];Bis(2-hydroxypropyl) ether;1,1′-Oxydi-2-propanol;1,1′-Dimethyldiethylene glycol;NSC 8688;4-Oxaheptane-2,6-diol;1,1′-Oxybis-2-propanol;1-(2-Hydroxypropoxy)propan-2-ol;1,1′-Oxybis(propan-2-ol)",
    "duplicated_cas_no": "",
    "SMILES": "O(CC(C)O)CC(C)O",
    "meta_data": {
        "InChI": "InChI=1S/C6H14O3/c1-5(7)3-9-4-6(2)8/h5-8H,3-4H2,1-2H3",
        "InChIKey": null,
        "Canonical SMILES": "OC(C)COCC(O)C",
        "Molecular Formula": "C<sub>6</sub>H<sub>14</sub>O<sub>3</sub>",
        "Molecular Mass": "134.17",
        "Boiling Point": "233 °C",
        "Melting Point": "-40 °C",
        "Density": "1.0252 g/cm³ @ Temp: 20 °C"
    }
}