{
    "cas_no": "470-40-6",
    "key_name": "Thujopsene",
    "cn_name": "罗汉柏烯;罗汉柏烯;",
    "alternate_name": "Cyclopropa[<em>d</em>]naphthalene, 1,1a,4,4a,5,6,7,8-octahydro-2,4a,8,8-tetramethyl-, (1a<em>S</em>,4a<em>S</em>,8a<em>S</em>)-;Cyclopropa[<em>d</em>]naphthalene, 1,1a,4,4a,5,6,7,8-octahydro-2,4a,8,8-tetramethyl-, (1a<em>S</em>,4a<em>S</em>,8a<em>S</em>)-(-)-;Thujopsene;Cyclopropa[<em>d</em>]naphthalene, 1,1a,4,4a,5,6,7,8-octahydro-2,4a,8,8-tetramethyl-, [1a<em>S</em>-(1aα,4aβ,8a<em>R</em>*)]-;(1a<em>S</em>,4a<em>S</em>,8a<em>S</em>)-1,1a,4,4a,5,6,7,8-Octahydro-2,4a,8,8-tetramethylcyclopropa[<em>d</em>]naphthalene;Sesquichamene;Widdrene;Thujopsene, (-)-;(-)-Thujopsene;Thujopsen;<em>cis</em>-(-)-Thujopsene;NSC 44707",
    "duplicated_cas_no": "",
    "SMILES": "C[C@@]12[C@@]3([C@@](C3)(C(C)=CC1)[H])C(C)(C)CCC2",
    "meta_data": {
        "InChI": "InChI=1S/C15H24/c1-11-6-9-14(4)8-5-7-13(2,3)15(14)10-12(11)15/h6,12H,5,7-10H2,1-4H3/t12-,14-,15-/m0/s1",
        "InChIKey": null,
        "Canonical SMILES": "C1=C(C)C2CC23C(C)(C)CCCC3(C)C1",
        "Molecular Formula": "C<sub>15</sub>H<sub>24</sub>",
        "Molecular Mass": "204.35",
        "Boiling Point": "120 °C",
        "Melting Point": "&lt;25 °C",
        "Density": "0.9277 g/cm³ @ Temp: 28 °C"
    }
}