{
    "cas_no": "329187-59-9",
    "key_name": "4-[(4,6-Dichloro-2-pyrimidinyl)amino]benzonitrile",
    "cn_name": null,
    "alternate_name": "Benzonitrile, 4-[(4,6-dichloro-2-pyrimidinyl)amino]-;4-[(4,6-Dichloro-2-pyrimidinyl)amino]benzonitrile;2-(4-Cyanophenylamino)-4,6-dichloropyrimidine",
    "duplicated_cas_no": "",
    "SMILES": "N(C=1N=C(Cl)C=C(Cl)N1)C2=CC=C(C#N)C=C2",
    "meta_data": {
        "InChI": "InChI=1S/C11H6Cl2N4/c12-9-5-10(13)17-11(16-9)15-8-3-1-7(6-14)2-4-8/h1-5H,(H,15,16,17)",
        "InChIKey": null,
        "Canonical SMILES": "N#CC1=CC=C(C=C1)NC2=NC(Cl)=CC(Cl)=N2",
        "Molecular Formula": "C<sub>11</sub>H<sub>6</sub>Cl<sub>2</sub>N<sub>4</sub>",
        "Molecular Mass": "265.10",
        "Melting Point": "114-116 °C"
    }
}