{
    "cas_no": "5856-77-9",
    "key_name": "2,2-Dimethylbutanoyl chloride",
    "cn_name": "2,2-二甲基丁酰氯;",
    "alternate_name": "Butanoyl chloride, 2,2-dimethyl-;Butyryl chloride, 2,2-dimethyl-;2,2-Dimethylbutanoyl chloride;2,2-Dimethylbutyryl chloride;2,2-Dimethylbutyric acid chloride;2,2-Dimethylbutanoic acid chloride;Pentanoyl chloride, 2,3,3-trimethyl-",
    "duplicated_cas_no": "2649275-05-6",
    "SMILES": "C(C(Cl)=O)(CC)(C)C",
    "meta_data": {
        "InChI": "InChI=1S/C6H11ClO/c1-4-6(2,3)5(7)8/h4H2,1-3H3",
        "InChIKey": null,
        "Canonical SMILES": "O=C(Cl)C(C)(C)CC",
        "Molecular Formula": "C<sub>6</sub>H<sub>11</sub>ClO",
        "Molecular Mass": "134.60",
        "Boiling Point": "132 °C",
        "Density": "0.9787 g/cm³ @ Temp: 20 °C"
    }
}