{
    "cas_no": "626-29-9",
    "key_name": "Myristic anhydride",
    "cn_name": "肉豆蔻酸酐;十四[酸]酐;肉豆蔻酐;",
    "alternate_name": "Tetradecanoic acid, 1,1′-anhydride;Myristic anhydride;Tetradecanoic acid, anhydride;Tetradecanoic anhydride;Myristic acid anhydride;Myristoyl anhydride",
    "duplicated_cas_no": "",
    "SMILES": "O(C(CCCCCCCCCCCCC)=O)C(CCCCCCCCCCCCC)=O",
    "meta_data": {
        "InChI": "InChI=1S/C28H54O3/c1-3-5-7-9-11-13-15-17-19-21-23-25-27(29)31-28(30)26-24-22-20-18-16-14-12-10-8-6-4-2/h3-26H2,1-2H3",
        "InChIKey": null,
        "Canonical SMILES": "O=C(OC(=O)CCCCCCCCCCCCC)CCCCCCCCCCCCC",
        "Molecular Formula": "C<sub>28</sub>H<sub>54</sub>O<sub>3</sub>",
        "Molecular Mass": "438.73",
        "Melting Point": "53.4 °C",
        "Density": "0.8502 g/cm³ @ Temp: 70 °C"
    }
}