{
    "cas_no": "7576-65-0",
    "key_name": "Disperse Yellow 54",
    "cn_name": "溶剂黄114;分散黄54;分散黄E-3G;2-(3-羟基-2-喹啉基)茚满-1,3-二酮;",
    "alternate_name": "1<em>H</em>-Indene-1,3(2<em>H</em>)-dione, 2-(3-hydroxy-2-quinolinyl)-;1,3-Indandione, 2-(3-hydroxy-2-quinolyl)-;2-(3-Hydroxy-2-quinolinyl)-1<em>H</em>-indene-1,3(2<em>H</em>)-dione;3′-Hydroxyquinophthalone;3-Hydroxyquinophthalone;2-(3-Hydroxyquinolin-2-yl)-1<em>H</em>-indene-1,3(2<em>H</em>)-dione;C.I. Disperse Yellow 54;Amacron Yellow L 3G;Dispersol Fast Yellow T 3G;Foron Brilliant Yellow E 3GFL;Samaron Yellow 3GL;Terasil Yellow 2GW;Resiren Yellow TGL;Latyl Yellow 3G;Disperse Yellow 54;Tersetile Yellow 3GLE;Teraprint Yellow 2G;Kayaset Yellow A-G;Palanil Yellow 3GE;C.I. 47020;Sumiplast Yellow HLR;Miketon Polyester Yellow F 3G;Plast Yellow 8040;Disperse Yellow F 3G;C.I. Solvent Yellow 114;Diaresin Yellow HG;PS Yellow GG;Solvent Yellow 114;Macrolex Yellow G;Sandoplast Yellow 2G;Resolin Yellow 4GL;Disperse Yellow E 2G;NSC 64849;Disperse Yellow SE 3GE;Disperse Yellow E 3GL;Disperse Yellow 3GE;Serilene Yellow 3GL;Oil Yellow 54;Sumikaron Yellow E-RPD;Y 54;2-(3-Hydroxy-quinolin-2-yl)-indan-1,3-dione;DY 54;Riaplas Yellow 3GL-TP",
    "duplicated_cas_no": "12223-85-7;62395-98-6;75216-45-4;113041-80-8;120920-39-0",
    "SMILES": "O=C1C(C(=O)C=2C1=CC=CC2)C3=NC4=C(C=C3O)C=CC=C4",
    "meta_data": {
        "InChI": "InChI=1S/C18H11NO3/c20-14-9-10-5-1-4-8-13(10)19-16(14)15-17(21)11-6-2-3-7-12(11)18(15)22/h1-9,15,20H",
        "InChIKey": null,
        "Canonical SMILES": "O=C1C=2C=CC=CC2C(=O)C1C3=NC=4C=CC=CC4C=C3O",
        "Molecular Formula": "C<sub>18</sub>H<sub>11</sub>NO<sub>3</sub>",
        "Molecular Mass": "289.28",
        "Melting Point": "265 °C"
    }
}