{
    "cas_no": "27159-32-6",
    "key_name": "1-[(Phenylmethyl)amino]-2-propanol",
    "cn_name": "1-苄氨基-2-丙醇;",
    "alternate_name": "2-Propanol, 1-[(phenylmethyl)amino]-;2-Propanol, 1-(benzylamino)-;1-[(Phenylmethyl)amino]-2-propanol;1-(Benzylamino)-2-propanol;NSC 32409;NSC 34079;3-Benzylaminopropan-2-ol",
    "duplicated_cas_no": "63612-85-1",
    "SMILES": "C(NCC(C)O)C1=CC=CC=C1",
    "meta_data": {
        "InChI": "InChI=1S/C10H15NO/c1-9(12)7-11-8-10-5-3-2-4-6-10/h2-6,9,11-12H,7-8H2,1H3",
        "InChIKey": null,
        "Canonical SMILES": "OC(C)CNCC=1C=CC=CC1",
        "Molecular Formula": "C<sub>10</sub>H<sub>15</sub>NO",
        "Molecular Mass": "165.23",
        "Boiling Point": "142 °C @ Press: 12 Torr",
        "Density": "1.0250 g/cm³ @ Temp: 20 °C"
    }
}