{
    "cas_no": "7440-57-5",
    "key_name": "Gold",
    "cn_name": "金;黄金;金粉;金,黄金;金箔,金叶;",
    "alternate_name": "Gold;C.I. 77480;Burnish Gold;Colloidal gold;C.I. Pigment Metal 3;Gold Flake;Gold Leaf;Gold Powder;Shell Gold;Gold 197;Gold black;Gold element;Britecote;A 4953;A 4631;AY 5022;Furuuchi 8560;SG 10NK;PH 870;Perfect Gold;G 1402;Palegold 5550;TR 1306;Au Net;E 175;Powdersafe 1790-01;Powdersafe 1785-01;Technic 504;Keradec;AGC Micro;T 10112;Finesphere Gold W 011;Au 050316;TAU 200;Au 050921;CG 001;AUE 003A;NPG;NPG-J;Alfa-Aesar;AuW 101;Finesphere Gold W 101;AUS-WM 1000CA;Elementary substance gold;Au 205;Au 1T;TCG 251;PMP-Au 2;Jinbo;Paraone PS 1200;AU 171481;GNP 01-5-100;Goldenhance EM;BL Gold 2-2.8;Luxor KPS;AuW 011;Maruko 1;CH-L 7;JK 013;20NS-20-50;Huayang 9606;Au DT;G 200;QSX 301;EM.GC 50;EMGC 50;EMGC 10;AuPVP;RR 2C;Resist CT;KP 24-00;Au-W4;Au-WPLC 3C;TAU 050;EMGC 40;EMGC 5;EMGC 60;EMGC 20;EMGC 80;EMGC 100;Au-WPPLC 1C;Au-WPPLC 3C;GLS 001;MeSH ID: D006046;Au 130",
    "duplicated_cas_no": "33019-35-1;1093282-27-9",
    "SMILES": "[Au]",
    "meta_data": {
        "InChI": "InChI=1S/Au",
        "InChIKey": null,
        "Canonical SMILES": "[Au]",
        "Molecular Formula": "Au",
        "Molecular Mass": "",
        "Boiling Point": "2700 °C",
        "Melting Point": "1064.76 °C",
        "Density": "19.3 g/cm³"
    }
}