{
    "cas_no": "111-25-1",
    "key_name": "1-Bromohexane",
    "cn_name": "溴己烷;",
    "alternate_name": "Hexane, 1-bromo-;1-Bromohexane;Hexyl bromide;<em>n</em>-Hexyl bromide;1-Hexylbromide;1-Hexane bromide;NSC 71206",
    "duplicated_cas_no": "",
    "SMILES": "C(CCBr)CCC",
    "meta_data": {
        "InChI": "InChI=1S/C6H13Br/c1-2-3-4-5-6-7/h2-6H2,1H3",
        "InChIKey": null,
        "Canonical SMILES": "BrCCCCCC",
        "Molecular Formula": "C<sub>6</sub>H<sub>13</sub>Br",
        "Molecular Mass": "165.07",
        "Boiling Point": "155.3 °C",
        "Melting Point": "-84.7 °C",
        "Density": "1.1852 g/cm³ @ Temp: 19 °C"
    }
}