{
    "cas_no": "1565-81-7",
    "key_name": "3-Decanol",
    "cn_name": "3-正癸醇;3-癸醇;",
    "alternate_name": "3-Decanol;1-Ethyl-1-octanol;3-Hydroxydecane;<em>dl</em>-Decan-3-ol;(±)-3-Decanol",
    "duplicated_cas_no": "74683-67-3",
    "SMILES": "C(CC(CC)O)CCCCC",
    "meta_data": {
        "InChI": "InChI=1S/C10H22O/c1-3-5-6-7-8-9-10(11)4-2/h10-11H,3-9H2,1-2H3",
        "InChIKey": null,
        "Canonical SMILES": "OC(CC)CCCCCCC",
        "Molecular Formula": "C<sub>10</sub>H<sub>22</sub>O",
        "Molecular Mass": "158.28",
        "Boiling Point": "213 °C",
        "Density": "0.79311 g/cm³ (liquid) @ Temp: 65.000 °C"
    }
}