{
    "cas_no": "142273-20-9",
    "key_name": "Kenpaullone",
    "cn_name": null,
    "alternate_name": "Indolo[3,2-<em>d</em>][1]benzazepin-6(5<em>H</em>)-one, 9-bromo-7,12-dihydro-;9-Bromo-7,12-dihydroindolo[3,2-<em>d</em>][1]benzazepin-6(5<em>H</em>)-one;NSC 664704;Kenpaullone;9-Bromopaullone",
    "duplicated_cas_no": "",
    "SMILES": "O=C1CC2=C(C=3C(N1)=CC=CC3)NC=4C2=CC(Br)=CC4",
    "meta_data": {
        "InChI": "InChI=1S/C16H11BrN2O/c17-9-5-6-14-11(7-9)12-8-15(20)18-13-4-2-1-3-10(13)16(12)19-14/h1-7,19H,8H2,(H,18,20)",
        "InChIKey": null,
        "Canonical SMILES": "O=C1NC=2C=CC=CC2C=3NC=4C=CC(Br)=CC4C3C1",
        "Molecular Formula": "C<sub>16</sub>H<sub>11</sub>BrN<sub>2</sub>O",
        "Molecular Mass": "327.18",
        "Melting Point": "&gt;330 °C"
    }
}