{
    "cas_no": "39151-19-4",
    "key_name": "3′,5′-Dimethoxyacetophenone",
    "cn_name": "3,5-二甲氧基苯乙酮;",
    "alternate_name": "Ethanone, 1-(3,5-dimethoxyphenyl)-;Acetophenone, 3′,5′-dimethoxy-;1-(3,5-Dimethoxyphenyl)ethanone;3,5-Dimethoxyacetophenone;3′,5′-Dimethoxyacetophenone;NSC 46884;3,5-Dimethoxy-1-acetylbenzene;3,5-Dimethoxyphenyl methyl ketone;1-(3,5-Dimethoxyphenyl)ethan-1-one",
    "duplicated_cas_no": "",
    "SMILES": "C(C)(=O)C1=CC(OC)=CC(OC)=C1",
    "meta_data": {
        "InChI": "InChI=1S/C10H12O3/c1-7(11)8-4-9(12-2)6-10(5-8)13-3/h4-6H,1-3H3",
        "InChIKey": null,
        "Canonical SMILES": "O=C(C=1C=C(OC)C=C(OC)C1)C",
        "Molecular Formula": "C<sub>10</sub>H<sub>12</sub>O<sub>3</sub>",
        "Molecular Mass": "180.20",
        "Boiling Point": "151-152 °C @ Press: 10 Torr",
        "Melting Point": "42-43 °C"
    }
}