{
    "cas_no": "18368-61-1",
    "key_name": "2-Methyl-6-nitropyridine",
    "cn_name": null,
    "alternate_name": "Pyridine, 2-methyl-6-nitro-;2-Picoline, 6-nitro-;2-Methyl-6-nitropyridine;2-Nitro-6-picoline;NSC 170845",
    "duplicated_cas_no": "",
    "SMILES": "N(=O)(=O)C=1N=C(C)C=CC1",
    "meta_data": {
        "InChI": "InChI=1S/C6H6N2O2/c1-5-3-2-4-6(7-5)8(9)10/h2-4H,1H3",
        "InChIKey": null,
        "Canonical SMILES": "O=N(=O)C=1N=C(C=CC1)C",
        "Molecular Formula": "C<sub>6</sub>H<sub>6</sub>N<sub>2</sub>O<sub>2</sub>",
        "Molecular Mass": "138.12",
        "Melting Point": "113-114 °C"
    }
}