{
    "cas_no": "2438-32-6",
    "key_name": "Dexchlorpheniramine maleate",
    "cn_name": "右泛醇;",
    "alternate_name": "2-Pyridinepropanamine, γ-(4-chlorophenyl)-<em>N</em>,<em>N</em>-dimethyl-, (γ<em>S</em>)-, (2<em>Z</em>)-2-butenedioate (1:1);2-Pyridinepropanamine, γ-(4-chlorophenyl)-<em>N</em>,<em>N</em>-dimethyl-, (<em>S</em>)-, (<em>Z</em>)-2-butenedioate (1:1);Pyridine, 2-[<em>p</em>-chloro-α-[2-(dimethylamino)ethyl]benzyl]-, maleate (1:1), (<em>S</em>)-;<em>d</em>-2-[<em>p</em>-Chloro-α-(2-dimethylaminoethyl)benzyl]pyridine bimaleate;<em>d</em>-Chlorpheniramine maleate;Dexchlorpheniramine maleate;Polaramine;(+)-Chlorpheniramine maleate;<em>S</em>-(+)-Chlorpheniramine maleate;Dexchlorpheniramine hydrogen maleate;Dextrochlorpheniramine maleate;Polaramin;Dexchloropheniramine maleate;d-Chlorpheniramine maleate;Polaronil;Phenamin;Fortamine;Phendextro;Isomerine;Polamin;Sensidyn;S-Chlorpheniramine maleate;(<em>S</em>)-3-(4-Chlorophenyl)-<em>N</em>,<em>N</em>-dimethyl-3-(pyridin-2-yl)propan-1-amine maleate",
    "duplicated_cas_no": "19141-42-5",
    "SMILES": "[C@H](CCN(C)C)(C1=CC=C(Cl)C=C1)C2=CC=CC=N2.C(=C\\C(O)=O)\\C(O)=O",
    "meta_data": {
        "InChI": "",
        "InChIKey": null,
        "Canonical SMILES": "O=C(O)C=CC(=O)O.ClC1=CC=C(C=C1)C(C2=NC=CC=C2)CCN(C)C",
        "Molecular Formula": "C<sub>16</sub>H<sub>19</sub>ClN<sub>2</sub>.C<sub>4</sub>H<sub>4</sub>O<sub>4</sub>",
        "Molecular Mass": "",
        "Melting Point": "113-115 °C"
    }
}