{
    "cas_no": "51-06-9",
    "key_name": "Procainamide",
    "cn_name": "磺胺对甲氧嘧啶;",
    "alternate_name": "Benzamide, 4-amino-<em>N</em>-[2-(diethylamino)ethyl]-;Benzamide, <em>p</em>-amino-<em>N</em>-[2-(diethylamino)ethyl]-;4-Amino-<em>N</em>-[2-(diethylamino)ethyl]benzamide;<em>p</em>-Aminobenzoic diethylaminoethylamide;<em>p</em>-Amino-<em>N</em>-(2-diethylaminoethyl)benzamide;Novocainamide;Novocaine amide;Novocamid;Procainamide;Procaine amide;Novocainamid;Procanbid;4-Amino-<em>N</em>-(diethylaminoethyl)benzamide;NSC 27461;SP 100;SP 100 (pharmaceutical);<em>N</em>-(2-(Diethylamino)ethyl)-4-aminobenzamide;MeSH ID: D011342",
    "duplicated_cas_no": "",
    "SMILES": "C(NCCN(CC)CC)(=O)C1=CC=C(N)C=C1",
    "meta_data": {
        "InChI": "InChI=1S/C13H21N3O/c1-3-16(4-2)10-9-15-13(17)11-5-7-12(14)8-6-11/h5-8H,3-4,9-10,14H2,1-2H3,(H,15,17)",
        "InChIKey": null,
        "Canonical SMILES": "O=C(NCCN(CC)CC)C1=CC=C(N)C=C1",
        "Molecular Formula": "C<sub>13</sub>H<sub>21</sub>N<sub>3</sub>O",
        "Molecular Mass": "235.33",
        "Boiling Point": "210-215 °C"
    }
}