{
    "cas_no": "67656-30-8",
    "key_name": "9-Hydroxycamptothecin",
    "cn_name": "10-羟基喜树碱;4-乙基-4,10-二羟基-1H-吡喃[3\",4\":6,7]吲哚[1,2-b]喹啉-3,14(4H,12H)-二酮;",
    "alternate_name": "1<em>H</em>-Pyrano[3′,4′:6,7]indolizino[1,2-<em>b</em>]quinoline-3,14(4<em>H</em>,12<em>H</em>)-dione, 4-ethyl-4,10-dihydroxy-, (4<em>S</em>)-;1<em>H</em>-Pyrano[3′,4′:6,7]indolizino[1,2-<em>b</em>]quinoline-3,14(4<em>H</em>,12<em>H</em>)-dione, 4-ethyl-4,10-dihydroxy-, (<em>S</em>)-;(4<em>S</em>)-4-Ethyl-4,10-dihydroxy-1<em>H</em>-pyrano[3′,4′:6,7]indolizino[1,2-<em>b</em>]quinoline-3,14(4<em>H</em>,12<em>H</em>)-dione;10-Hydroxycamptothecine;9-Hydroxycamptothecine;9-Hydroxycamptothecin",
    "duplicated_cas_no": "73067-51-3",
    "SMILES": "C(C)[C@]1(O)C2=C(C(=O)N3C(=C2)C=4C(C3)=CC=5C(N4)=CC=CC5O)COC1=O",
    "meta_data": {
        "InChI": "InChI=1S/C20H16N2O5/c1-2-20(26)13-7-15-17-10(6-11-14(21-17)4-3-5-16(11)23)8-22(15)18(24)12(13)9-27-19(20)25/h3-7,23,26H,2,8-9H2,1H3/t20-/m0/s1",
        "InChIKey": null,
        "Canonical SMILES": "O=C1OCC=2C(=O)N3C(=CC2C1(O)CC)C=4N=C5C=CC=C(O)C5=CC4C3",
        "Molecular Formula": "C<sub>20</sub>H<sub>16</sub>N<sub>2</sub>O<sub>5</sub>",
        "Molecular Mass": "364.35",
        "Melting Point": "224 °C"
    }
}