{
    "cas_no": "55117-15-2",
    "key_name": "2-Chloro-6-fluorobenzyl chloride",
    "cn_name": "2-氯-6-氟氯苄;",
    "alternate_name": "Benzene, 1-chloro-2-(chloromethyl)-3-fluoro-;1-Chloro-2-(chloromethyl)-3-fluorobenzene;2-Chloro-6-fluorobenzyl chloride;α,2-Dichloro-6-fluorotoluene;1-Chloro-2-chloromethyl-3-fluorobenzene",
    "duplicated_cas_no": "",
    "SMILES": "C(Cl)C1=C(Cl)C=CC=C1F",
    "meta_data": {
        "InChI": "InChI=1S/C7H5Cl2F/c8-4-5-6(9)2-1-3-7(5)10/h1-3H,4H2",
        "InChIKey": null,
        "Canonical SMILES": "FC1=CC=CC(Cl)=C1CCl",
        "Molecular Formula": "C<sub>7</sub>H<sub>5</sub>Cl<sub>2</sub>F",
        "Molecular Mass": "179.02",
        "Melting Point": "41-43 °C"
    }
}