{
    "cas_no": "41036-32-2",
    "key_name": "<span class=\"text-smallcaps\">D</span>-Alanine, phenylmethyl ester, 4-methylbenzenesulfonate (1:1)",
    "cn_name": "D-Ala-OBzl稵osOH;",
    "alternate_name": "<span class=\"text-smallcaps\">D</span>-Alanine, phenylmethyl ester, 4-methylbenzenesulfonate (1:1);<span class=\"text-smallcaps\">D</span>-Alanine, phenylmethyl ester, 4-methylbenzenesulfonate;<span class=\"text-smallcaps\">D</span>-Alanine benzyl ester <em>p</em>-toluenesulfonate;Benzyl <span class=\"text-smallcaps\">D</span>-alaninate <em>p</em>-toluenesulfonate;<span class=\"text-smallcaps\">D</span>-Alanine benzyl ester tosylate;<span class=\"text-smallcaps\">D</span>-Alanine benzyl ester <em>p</em>-toluenesulfonate salt;<em>O</em>-Benzyl-<span class=\"text-smallcaps\">D</span>-alanine toluene-<em>p</em>-sulfonate",
    "duplicated_cas_no": "",
    "SMILES": "C(OC([C@@H](C)N)=O)C1=CC=CC=C1.S(=O)(=O)(O)C1=CC=C(C)C=C1",
    "meta_data": {
        "InChI": "InChI=1S/C10H13NO2.C7H8O3S/c1-8(11)10(12)13-7-9-5-3-2-4-6-9;1-6-2-4-7(5-3-6)11(8,9)10/h2-6,8H,7,11H2,1H3;2-5H,1H3,(H,8,9,10)/t8-;/m1./s1",
        "InChIKey": null,
        "Canonical SMILES": "O=C(OCC=1C=CC=CC1)C(N)C.O=S(=O)(O)C1=CC=C(C=C1)C",
        "Molecular Formula": "C<sub>10</sub>H<sub>13</sub>NO<sub>2</sub>.C<sub>7</sub>H<sub>8</sub>O<sub>3</sub>S",
        "Molecular Mass": "",
        "Melting Point": "113-114 °C"
    }
}