{
    "cas_no": "2905-56-8",
    "key_name": "1-Benzylpiperidine",
    "cn_name": "1-苄基哌啶;",
    "alternate_name": "Piperidine, 1-(phenylmethyl)-;Piperidine, 1-benzyl-;1-(Phenylmethyl)piperidine;<em>N</em>-Benzylpiperidine;1-Benzylpiperidine",
    "duplicated_cas_no": "",
    "SMILES": "C(C1=CC=CC=C1)N2CCCCC2",
    "meta_data": {
        "InChI": "InChI=1S/C12H17N/c1-3-7-12(8-4-1)11-13-9-5-2-6-10-13/h1,3-4,7-8H,2,5-6,9-11H2",
        "InChIKey": null,
        "Canonical SMILES": "C=1C=CC(=CC1)CN2CCCCC2",
        "Molecular Formula": "C<sub>12</sub>H<sub>17</sub>N",
        "Molecular Mass": "175.27",
        "Boiling Point": "245 °C",
        "Melting Point": "178-179 °C"
    }
}