{
    "cas_no": "1011-40-1",
    "key_name": "2-Phenyl-5-thiazolecarboxaldehyde",
    "cn_name": "2-苯基-1,3-噻唑-5-甲醛;",
    "alternate_name": "5-Thiazolecarboxaldehyde, 2-phenyl-;2-Phenyl-5-thiazolecarboxaldehyde;2-Phenylthiazole-5-carboxaldehyde;2-Phenyl-1,3-thiazole-5-carboxaldehyde;2-Phenylthiazole-5-carbaldehyde;2-Phenyl-1,3-thiazole-5-carbaldehyde",
    "duplicated_cas_no": "",
    "SMILES": "C(=O)C=1SC(=NC1)C2=CC=CC=C2",
    "meta_data": {
        "InChI": "InChI=1S/C10H7NOS/c12-7-9-6-11-10(13-9)8-4-2-1-3-5-8/h1-7H",
        "InChIKey": null,
        "Canonical SMILES": "O=CC=1SC(=NC1)C=2C=CC=CC2",
        "Molecular Formula": "C<sub>10</sub>H<sub>7</sub>NOS",
        "Molecular Mass": "189.23",
        "Melting Point": "94.5 °C"
    }
}