{
    "cas_no": "923604-59-5",
    "key_name": "Simeprevir",
    "cn_name": null,
    "alternate_name": "Cyclopenta[<em>c</em>]cyclopropa[<em>g</em>][1,6]diazacyclotetradecine-12a(1<em>H</em>)-carboxamide, <em>N</em>-(cyclopropylsulfonyl)-2,3,3a,4,5,6,7,8,9,11a,12,13,14,14a-tetradecahydro-2-[[7-methoxy-8-methyl-2-[4-(1-methylethyl)-2-thiazolyl]-4-quinolinyl]oxy]-5-methyl-4,14-dioxo-, (2<em>R</em>,3a<em>R</em>,10<em>Z</em>,11a<em>S</em>,12a<em>R</em>,14a<em>R</em>)-;(2<em>R</em>,3a<em>R</em>,10<em>Z</em>,11a<em>S</em>,12a<em>R</em>,14a<em>R</em>)-<em>N</em>-(Cyclopropylsulfonyl)-2,3,3a,4,5,6,7,8,9,11a,12,13,14,14a-tetradecahydro-2-[[7-methoxy-8-methyl-2-[4-(1-methylethyl)-2-thiazolyl]-4-quinolinyl]oxy]-5-methyl-4,14-dioxocyclopenta[<em>c</em>]cyclopropa[<em>g</em>][1,6]diazacyclotetradecine-12a(1<em>H</em>)-carboxamide;TMC 435350;TMC 435;Simeprevir;Sovriad;Olysio;Merospevir;MeSH ID: D000069616",
    "duplicated_cas_no": "",
    "SMILES": "",
    "meta_data": {
        "InChI": "",
        "InChIKey": null,
        "Canonical SMILES": "",
        "Molecular Formula": "C<sub>38</sub>H<sub>47</sub>N<sub>5</sub>O<sub>7</sub>S<sub>2</sub>",
        "Molecular Mass": "749.94",
        "Melting Point": "238-239.1 °C"
    }
}