{
    "cas_no": "7383-19-9",
    "key_name": "1-Heptyn-3-ol",
    "cn_name": "1-庚炔-3-醇;1-庚炔-3-醇;",
    "alternate_name": "1-Heptyn-3-ol;Butylethynylcarbinol;3-Hydroxy-1-heptyne;(3<em>RS</em>)-1-Heptyn-3-ol;(<em>RS</em>)-1-Heptyn-3-ol",
    "duplicated_cas_no": "51586-58-4",
    "SMILES": "C(CCCC)(C#C)O",
    "meta_data": {
        "InChI": "InChI=1S/C7H12O/c1-3-5-6-7(8)4-2/h2,7-8H,3,5-6H2,1H3",
        "InChIKey": null,
        "Canonical SMILES": "C#CC(O)CCCC",
        "Molecular Formula": "C<sub>7</sub>H<sub>12</sub>O",
        "Molecular Mass": "112.17",
        "Boiling Point": "60 °C @ Press: 5 Torr"
    }
}