{
    "cas_no": "40691-66-5",
    "key_name": "Benzeneethanamine, β-methyl-β-phenyl-, hydrochloride (1:1)",
    "cn_name": "2,2-联苯基丙基胺盐酸盐;",
    "alternate_name": "Benzeneethanamine, β-methyl-β-phenyl-, hydrochloride (1:1);Benzeneethanamine, β-methyl-β-phenyl-, hydrochloride;2,2-Diphenylpropylamine hydrochloride;2,2-Diphenylpropan-1-amine hydrochloride",
    "duplicated_cas_no": "",
    "SMILES": "C(CN)(C)(C1=CC=CC=C1)C2=CC=CC=C2.Cl",
    "meta_data": {
        "InChI": "InChI=1S/C15H17N.ClH/c1-15(12-16,13-8-4-2-5-9-13)14-10-6-3-7-11-14;/h2-11H,12,16H2,1H3;1H",
        "InChIKey": null,
        "Canonical SMILES": "Cl.NCC(C=1C=CC=CC1)(C=2C=CC=CC2)C",
        "Molecular Formula": "C<sub>15</sub>H<sub>17</sub>N.ClH",
        "Molecular Mass": "",
        "Melting Point": "258-260 °C"
    }
}