{
    "cas_no": "2980-32-7",
    "key_name": "Demethylbellidifolin",
    "cn_name": null,
    "alternate_name": "9<em>H</em>-Xanthen-9-one, 1,3,5,8-tetrahydroxy-;Xanthen-9-one, 1,3,5,8-tetrahydroxy-;1,3,5,8-Tetrahydroxy-9<em>H</em>-xanthen-9-one;Demethylbellidifolin;1,3,5,8-Tetrahydroxyxanthone;1,3,5,8-Tetrahydroxyxanthen-9-one;Desmethylbellidifoline;Desmethylbellidifolin;Bellidin;3-<em>O</em>-Demethylbellidifolin;Norbellidifodin;Norbellidifolin;1,3,5,8-Tetrahydroxy xanthenone",
    "duplicated_cas_no": "",
    "SMILES": "O=C1C=2C(OC=3C1=C(O)C=CC3O)=CC(O)=CC2O",
    "meta_data": {
        "InChI": "InChI=1S/C13H8O6/c14-5-3-8(17)10-9(4-5)19-13-7(16)2-1-6(15)11(13)12(10)18/h1-4,14-17H",
        "InChIKey": null,
        "Canonical SMILES": "O=C1C=2C(O)=CC(O)=CC2OC=3C(O)=CC=C(O)C13",
        "Molecular Formula": "C<sub>13</sub>H<sub>8</sub>O<sub>6</sub>",
        "Molecular Mass": "260.20",
        "Melting Point": "317 °C"
    }
}