{
    "cas_no": "10242-01-0",
    "key_name": "5-Methoxy-1<em>H</em>-indole-3-carboxylic acid",
    "cn_name": "5-甲氧基吲哚-3-羧酸;",
    "alternate_name": "1<em>H</em>-Indole-3-carboxylic acid, 5-methoxy-;Indole-3-carboxylic acid, 5-methoxy-;Indolo-3-carboxylic acid, 5-methoxy-;5-Methoxy-1<em>H</em>-indole-3-carboxylic acid;5-Methoxyindole-3-carboxylic acid;NSC 88877",
    "duplicated_cas_no": "",
    "SMILES": "C(O)(=O)C=1C=2C(NC1)=CC=C(OC)C2",
    "meta_data": {
        "InChI": "InChI=1S/C10H9NO3/c1-14-6-2-3-9-7(4-6)8(5-11-9)10(12)13/h2-5,11H,1H3,(H,12,13)",
        "InChIKey": null,
        "Canonical SMILES": "O=C(O)C1=CNC=2C=CC(OC)=CC21",
        "Molecular Formula": "C<sub>10</sub>H<sub>9</sub>NO<sub>3</sub>",
        "Molecular Mass": "191.18",
        "Melting Point": "172-175 °C"
    }
}