{
    "cas_no": "57813-67-9",
    "key_name": "3-Butenyltriethoxysilane",
    "cn_name": null,
    "alternate_name": "Silane, 3-buten-1-yltriethoxy-;Silane, 3-butenyltriethoxy-;3-Buten-1-yltriethoxysilane;4-Triethoxysilyl-1-butene;3-Butenyltriethoxysilane",
    "duplicated_cas_no": "",
    "SMILES": "[Si](CCC=C)(OCC)(OCC)OCC",
    "meta_data": {
        "InChI": "InChI=1S/C10H22O3Si/c1-5-9-10-14(11-6-2,12-7-3)13-8-4/h5H,1,6-10H2,2-4H3",
        "InChIKey": null,
        "Canonical SMILES": "O(CC)[Si](OCC)(OCC)CCC=C",
        "Molecular Formula": "C<sub>10</sub>H<sub>22</sub>O<sub>3</sub>Si",
        "Molecular Mass": "218.37",
        "Boiling Point": "64 °C @ Press: 6 Torr",
        "Density": "0.90 g/cm³"
    }
}