{
    "cas_no": "1504-58-1",
    "key_name": "3-Phenyl-2-propyn-1-ol",
    "cn_name": null,
    "alternate_name": "2-Propyn-1-ol, 3-phenyl-;2-Propin-1-ol, 3-phenyl-;3-Phenyl-2-propyn-1-ol;3-Phenyl-2-propynol;3-Phenylpropargyl alcohol;3-Phenyl-2-propynyl alcohol;Phenylpropargyl alcohol;(Hydroxymethyl)phenylacetylene;1-Hydroxy-3-phenyl-2-propyne;1-Phenyl-3-hydroxyprop-1-yne;3-Phenyl-2-propyne-1-ol;(3-Hydroxy-1-propyn-1-yl)benzene",
    "duplicated_cas_no": "",
    "SMILES": "C(#CCO)C1=CC=CC=C1",
    "meta_data": {
        "InChI": "InChI=1S/C9H8O/c10-8-4-7-9-5-2-1-3-6-9/h1-3,5-6,10H,8H2",
        "InChIKey": null,
        "Canonical SMILES": "OCC#CC=1C=CC=CC1",
        "Molecular Formula": "C<sub>9</sub>H<sub>8</sub>O",
        "Molecular Mass": "132.16",
        "Boiling Point": "137-138 °C",
        "Melting Point": "119-122 °C",
        "Density": "1.07 g/cm³ @ Temp: 18 °C"
    }
}