{
    "cas_no": "122-70-3",
    "key_name": "Phenylethyl propionate",
    "cn_name": "丙酸-2-苯乙酯;丙酸苯乙酯;",
    "alternate_name": "Propanoic acid, 2-phenylethyl ester;Propionic acid, phenethyl ester;Benzylcarbinyl propionate;Phenethyl propionate;Phenylethyl propionate;Phenethyl alcohol propionate;2-Phenethyl propionate;2-Phenylethyl propionate;2-Phenylethyl propanoate;β-Phenylethyl propionate;Phenethyl propanoate;NSC 404457;EcoPCO ACU",
    "duplicated_cas_no": "",
    "SMILES": "C(COC(CC)=O)C1=CC=CC=C1",
    "meta_data": {
        "InChI": "InChI=1S/C11H14O2/c1-2-11(12)13-9-8-10-6-4-3-5-7-10/h3-7H,2,8-9H2,1H3",
        "InChIKey": null,
        "Canonical SMILES": "O=C(OCCC=1C=CC=CC1)CC",
        "Molecular Formula": "C<sub>11</sub>H<sub>14</sub>O<sub>2</sub>",
        "Molecular Mass": "178.23",
        "Boiling Point": "238 °C",
        "Melting Point": "&lt;25 °C",
        "Density": "1.0101 g/cm³ @ Temp: 20 °C"
    }
}