{
    "cas_no": "21964-44-3",
    "key_name": "1-Nonen-3-ol",
    "cn_name": "1-壬烯-3-醇;",
    "alternate_name": "1-Nonen-3-ol;Hexylvinylcarbinol;1-Vinylheptanol;3-Hydroxy-1-nonene;(±)-1-Nonen-3-ol;NSC 102782",
    "duplicated_cas_no": "79605-61-1",
    "SMILES": "C(CCCCCC)(C=C)O",
    "meta_data": {
        "InChI": "InChI=1S/C9H18O/c1-3-5-6-7-8-9(10)4-2/h4,9-10H,2-3,5-8H2,1H3",
        "InChIKey": null,
        "Canonical SMILES": "OC(C=C)CCCCCC",
        "Molecular Formula": "C<sub>9</sub>H<sub>18</sub>O",
        "Molecular Mass": "142.24",
        "Boiling Point": "193.5 °C",
        "Density": "0.824 g/cm³ @ Temp: 21 °C"
    }
}