{
    "cas_no": "77307-50-7",
    "key_name": "Kaempferol 3-<em>O</em>-(3′′,4′′-di-<em>O</em>-acetyl-α-<span class=\"text-smallcaps\">L</span>-rhamnopyranoside)",
    "cn_name": null,
    "alternate_name": "4<em>H</em>-1-Benzopyran-4-one, 3-[(3,4-di-<em>O</em>-acetyl-6-deoxy-α-<span class=\"text-smallcaps\">L</span>-mannopyranosyl)oxy]-5,7-dihydroxy-2-(4-hydroxyphenyl)-;3-[(3,4-Di-<em>O</em>-acetyl-6-deoxy-α-<span class=\"text-smallcaps\">L</span>-mannopyranosyl)oxy]-5,7-dihydroxy-2-(4-hydroxyphenyl)-4<em>H</em>-1-benzopyran-4-one;3′′,4′′-Di-<em>O</em>-acetylafzelin;Kaempferol 3-<em>O</em>-(3′′,4′′-di-<em>O</em>-acetyl-α-<span class=\"text-smallcaps\">L</span>-rhamnopyranoside);SL 0101-1;SL 0101",
    "duplicated_cas_no": "",
    "SMILES": "O(C1=C(OC=2C(C1=O)=C(O)C=C(O)C2)C3=CC=C(O)C=C3)[C@H]4[C@H](O)[C@H](OC(C)=O)[C@@H](OC(C)=O)[C@H](C)O4",
    "meta_data": {
        "InChI": "InChI=1S/C25H24O12/c1-10-21(34-11(2)26)24(35-12(3)27)20(32)25(33-10)37-23-19(31)18-16(30)8-15(29)9-17(18)36-22(23)13-4-6-14(28)7-5-13/h4-10,20-21,24-25,28-30,32H,1-3H3/t10-,20+,21-,24-,25-/m0/s1",
        "InChIKey": null,
        "Canonical SMILES": "O=C(OC1C(O)C(OC=2C(=O)C=3C(O)=CC(O)=CC3OC2C=4C=CC(O)=CC4)OC(C)C1OC(=O)C)C",
        "Molecular Formula": "C<sub>25</sub>H<sub>24</sub>O<sub>12</sub>",
        "Molecular Mass": "516.45",
        "Melting Point": "147-149 °C"
    }
}