{
    "cas_no": "74743-23-0",
    "key_name": "Ethyl (α<em>S</em>)-α-[(4-aminophenyl)methyl]-1,3-dihydro-1,3-dioxo-2<em>H</em>-isoindole-2-acetate",
    "cn_name": "L-3-(4-氨基苯基)-2-邻苯二甲酰亚氨基丙酸乙酯;",
    "alternate_name": "2<em>H</em>-Isoindole-2-acetic acid, α-[(4-aminophenyl)methyl]-1,3-dihydro-1,3-dioxo-, ethyl ester, (α<em>S</em>)-;2<em>H</em>-Isoindole-2-acetic acid, α-[(4-aminophenyl)methyl]-1,3-dihydro-1,3-dioxo-, ethyl ester, (<em>S</em>)-;Ethyl (α<em>S</em>)-α-[(4-aminophenyl)methyl]-1,3-dihydro-1,3-dioxo-2<em>H</em>-isoindole-2-acetate;NSC 313359;(<em>S</em>)-Ethyl3-(4-aminophenyl)-2-(1,3-dioxoisoindolin-2-yl)propanoate",
    "duplicated_cas_no": "",
    "SMILES": "[C@H](CC1=CC=C(N)C=C1)(C(OCC)=O)N2C(=O)C=3C(C2=O)=CC=CC3",
    "meta_data": {
        "InChI": "InChI=1S/C19H18N2O4/c1-2-25-19(24)16(11-12-7-9-13(20)10-8-12)21-17(22)14-5-3-4-6-15(14)18(21)23/h3-10,16H,2,11,20H2,1H3/t16-/m0/s1",
        "InChIKey": null,
        "Canonical SMILES": "O=C(OCC)C(N1C(=O)C=2C=CC=CC2C1=O)CC3=CC=C(N)C=C3",
        "Molecular Formula": "C<sub>19</sub>H<sub>18</sub>N<sub>2</sub>O<sub>4</sub>",
        "Molecular Mass": "338.36",
        "Melting Point": "102-103 °C"
    }
}