{
    "cas_no": "119738-06-6",
    "key_name": "Quizalofop-tefuryl",
    "cn_name": "糖草酯;喹禾糠酯;(RS)-2-[4-(6-氯喹喔啉-2-氧基)苯氧基]丙酸-2-四氢呋喃甲基酯;",
    "alternate_name": "Propanoic acid, 2-[4-[(6-chloro-2-quinoxalinyl)oxy]phenoxy]-, (tetrahydro-2-furanyl)methyl ester;UBI 1956;Quizalofop-tefuryl",
    "duplicated_cas_no": "",
    "SMILES": "O(C1=NC2=C(N=C1)C=C(Cl)C=C2)C3=CC=C(OC(C(OCC4CCCO4)=O)C)C=C3",
    "meta_data": {
        "InChI": "InChI=1S/C22H21ClN2O5/c1-14(22(26)28-13-18-3-2-10-27-18)29-16-5-7-17(8-6-16)30-21-12-24-20-11-15(23)4-9-19(20)25-21/h4-9,11-12,14,18H,2-3,10,13H2,1H3",
        "InChIKey": null,
        "Canonical SMILES": "O=C(OCC1OCCC1)C(OC2=CC=C(OC3=NC4=CC=C(Cl)C=C4N=C3)C=C2)C",
        "Molecular Formula": "C<sub>22</sub>H<sub>21</sub>ClN<sub>2</sub>O<sub>5</sub>",
        "Molecular Mass": "428.87",
        "Melting Point": "64 °C"
    }
}