{
    "cas_no": "37972-24-0",
    "key_name": "2-Ethynylpyrimidine",
    "cn_name": null,
    "alternate_name": "Pyrimidine, 2-ethynyl-;2-Ethynylpyrimidine",
    "duplicated_cas_no": "",
    "SMILES": "C(#C)C=1N=CC=CN1",
    "meta_data": {
        "InChI": "InChI=1S/C6H4N2/c1-2-6-7-4-3-5-8-6/h1,3-5H",
        "InChIKey": null,
        "Canonical SMILES": "C#CC1=NC=CC=N1",
        "Molecular Formula": "C<sub>6</sub>H<sub>4</sub>N<sub>2</sub>",
        "Molecular Mass": "104.11",
        "Melting Point": "95-96 °C"
    }
}