{
    "cas_no": "1111732-87-6",
    "key_name": "Borate(1-), trifluoro-4-pyridinyl-, potassium (1:1), (<em>T</em>-4)-",
    "cn_name": null,
    "alternate_name": "Borate(1-), trifluoro-4-pyridinyl-, potassium (1:1), (<em>T</em>-4)-;Potassium 4-pyridyltrifluoroborate",
    "duplicated_cas_no": "",
    "SMILES": "[B+3]([F-])([F-])([F-])[C-]=1C=CN=CC1.[K+]",
    "meta_data": {
        "InChI": "InChI=1S/C5H4BF3N.K/c7-6(8,9)5-1-3-10-4-2-5;/h1-4H;/q-1;+1",
        "InChIKey": null,
        "Canonical SMILES": "[K+].[F-][B+3]([F-])([F-])[C-]=1C=CN=CC1",
        "Molecular Formula": "C<sub>5</sub>H<sub>4</sub>BF<sub>3</sub>N.K",
        "Molecular Mass": "",
        "Melting Point": "&gt;200 °C"
    }
}