{
    "cas_no": "843-33-4",
    "key_name": "4-[(4-Nitrophenyl)azo]-1,2-benzenediol",
    "cn_name": "4-(4-硝基苯偶氮)苯磷二酚;4-[(4-硝基苯基)偶氮]邻苯二酚;",
    "alternate_name": "1,2-Benzenediol, 4-[2-(4-nitrophenyl)diazenyl]-;Pyrocatechol, 4-[(<em>p</em>-nitrophenyl)azo]-;1,2-Benzenediol, 4-[(4-nitrophenyl)azo]-;4-[2-(4-Nitrophenyl)diazenyl]-1,2-benzenediol;3,4-Dihydroxy-4′-nitroazobenzene;4-[(4-Nitrophenyl)azo]pyrocatechol;<em>p</em>-(<em>p</em>-Nitrophenylazo)pyrocatechol;4-(4-Nitrophenylazo)-1,2-dihydroxybenzene;4-[(4-Nitrophenyl)azo]-1,2-benzenediol;4-(<em>p</em>-Nitrobenzeneazo)pyrocatechin;NSC 75879",
    "duplicated_cas_no": "",
    "SMILES": "N(=NC1=CC(O)=C(O)C=C1)C2=CC=C(N(=O)=O)C=C2",
    "meta_data": {
        "InChI": "InChI=1S/C12H9N3O4/c16-11-6-3-9(7-12(11)17)14-13-8-1-4-10(5-2-8)15(18)19/h1-7,16-17H",
        "InChIKey": null,
        "Canonical SMILES": "O=N(=O)C1=CC=C(N=NC2=CC=C(O)C(O)=C2)C=C1",
        "Molecular Formula": "C<sub>12</sub>H<sub>9</sub>N<sub>3</sub>O<sub>4</sub>",
        "Molecular Mass": "259.22",
        "Melting Point": "232-234 °C"
    }
}