{
    "cas_no": "2946-17-0",
    "key_name": "5-Methoxy-2-methylbenzoselenazole",
    "cn_name": "5-甲氧基-2-甲基苯并硒杂唑;",
    "alternate_name": "Benzoselenazole, 5-methoxy-2-methyl-;5-Methoxy-2-methylbenzoselenazole;2-Methyl-5-methoxybenzoselenazole;NSC 366221",
    "duplicated_cas_no": "",
    "SMILES": "CC=1[Se]C=2C(=CC(OC)=CC2)N1",
    "meta_data": {
        "InChI": "InChI=1S/C9H9NOSe/c1-6-10-8-5-7(11-2)3-4-9(8)12-6/h3-5H,1-2H3",
        "InChIKey": null,
        "Canonical SMILES": "N=1C=2C=C(OC)C=CC2[Se]C1C",
        "Molecular Formula": "C<sub>9</sub>H<sub>9</sub>NOSe",
        "Molecular Mass": "226.13",
        "Boiling Point": "162 °C @ Press: 10 Torr",
        "Melting Point": "88-90 °C"
    }
}