{
    "cas_no": "112197-16-7",
    "key_name": "2-Methoxy-3-pyridinemethanol",
    "cn_name": null,
    "alternate_name": "3-Pyridinemethanol, 2-methoxy-;2-Methoxy-3-pyridinemethanol;3-Hydroxymethyl-2-methoxypyridine;(2-Methoxypyridin-3-yl)methanol",
    "duplicated_cas_no": "",
    "SMILES": "C(O)C1=C(OC)N=CC=C1",
    "meta_data": {
        "InChI": "InChI=1S/C7H9NO2/c1-10-7-6(5-9)3-2-4-8-7/h2-4,9H,5H2,1H3",
        "InChIKey": null,
        "Canonical SMILES": "OCC1=CC=CN=C1OC",
        "Molecular Formula": "C<sub>7</sub>H<sub>9</sub>NO<sub>2</sub>",
        "Molecular Mass": "139.15",
        "Boiling Point": "95 °C @ Press: 3 Torr",
        "Melting Point": "36-38 °C"
    }
}