{
    "cas_no": "7705-07-9",
    "key_name": "Titanium chloride (TiCl<sub>3</sub>)",
    "cn_name": "三氯化钛;",
    "alternate_name": "Titanium chloride (TiCl<sub>3</sub>);Titanium trichloride;Titanous chloride;Titanium(III) chloride;Titanium chloride;TAC 121;Trichlorotitanium;TAC 132;TGY 24;TAS 101;TAC 140;TAC 144;Lynx 900;TEN 12;TOS 17;MSK-TiCl<sub>3</sub>;TAS 101 (inorganic compound)",
    "duplicated_cas_no": "",
    "SMILES": "[Ti](Cl)(Cl)Cl",
    "meta_data": {
        "InChI": "InChI=1S/3ClH.Ti/h3*1H;/q;;;+3/p-3",
        "InChIKey": null,
        "Canonical SMILES": "Cl[Ti](Cl)Cl",
        "Molecular Formula": "Cl<sub>3</sub>Ti",
        "Molecular Mass": "",
        "Melting Point": "150-208 °C"
    }
}