{
    "cas_no": "1518-84-9",
    "key_name": "2-Cyclopentylphenol",
    "cn_name": "2-环戊基苯酚;",
    "alternate_name": "Phenol, 2-cyclopentyl-;Phenol, <em>o</em>-cyclopentyl-;2-Cyclopentylphenol;<em>o</em>-Cyclopentylphenol;NSC 407789",
    "duplicated_cas_no": "",
    "SMILES": "OC1=C(C2CCCC2)C=CC=C1",
    "meta_data": {
        "InChI": "InChI=1S/C11H14O/c12-11-8-4-3-7-10(11)9-5-1-2-6-9/h3-4,7-9,12H,1-2,5-6H2",
        "InChIKey": null,
        "Canonical SMILES": "OC=1C=CC=CC1C2CCCC2",
        "Molecular Formula": "C<sub>11</sub>H<sub>14</sub>O",
        "Molecular Mass": "162.23",
        "Boiling Point": "149 °C",
        "Melting Point": "34.5 °C"
    }
}