{
    "cas_no": "2252-62-2",
    "key_name": "α,α-Dimethyl-4-(trifluoromethyl)benzenemethanol",
    "cn_name": null,
    "alternate_name": "Benzenemethanol, α,α-dimethyl-4-(trifluoromethyl)-;<em>p</em>-Cymen-8-ol, 7,7,7-trifluoro-;α,α-Dimethyl-4-(trifluoromethyl)benzenemethanol;α,α-Dimethyl-<em>p</em>-(trifluoromethyl)benzyl alcohol;2-[4-(Trifluoromethyl)phenyl]-2-propanol;[4-(Trifluoromethyl)phenyl]dimethylcarbinol",
    "duplicated_cas_no": "",
    "SMILES": "C(C)(C)(O)C1=CC=C(C(F)(F)F)C=C1",
    "meta_data": {
        "InChI": "InChI=1S/C10H11F3O/c1-9(2,14)7-3-5-8(6-4-7)10(11,12)13/h3-6,14H,1-2H3",
        "InChIKey": null,
        "Canonical SMILES": "FC(F)(F)C1=CC=C(C=C1)C(O)(C)C",
        "Molecular Formula": "C<sub>10</sub>H<sub>11</sub>F<sub>3</sub>O",
        "Molecular Mass": "204.19",
        "Boiling Point": "73.5-74.9 °C @ Press: 3 Torr",
        "Melting Point": "40.5-41.5 °C"
    }
}