{
    "cas_no": "676-96-0",
    "key_name": "Trimethylphosphine oxide",
    "cn_name": "三甲基氧膦;",
    "alternate_name": "Phosphine oxide, trimethyl-;Trimethylphosphine oxide;TMPO;(Dimethylphosphoryl)methane",
    "duplicated_cas_no": "",
    "SMILES": "P(C)(C)(C)=O",
    "meta_data": {
        "InChI": "InChI=1S/C3H9OP/c1-5(2,3)4/h1-3H3",
        "InChIKey": null,
        "Canonical SMILES": "O=P(C)(C)C",
        "Molecular Formula": "C<sub>3</sub>H<sub>9</sub>OP",
        "Molecular Mass": "92.08",
        "Melting Point": "140-141 °C"
    }
}