{
    "cas_no": "832114-06-4",
    "key_name": "(4-Methyl-1-piperazinyl)[4-(4,4,5,5-tetramethyl-1,3,2-dioxaborolan-2-yl)phenyl]methanone",
    "cn_name": "4-(4-甲基哌嗪-1-羰基)苯硼酸频哪酯;",
    "alternate_name": "Methanone, (4-methyl-1-piperazinyl)[4-(4,4,5,5-tetramethyl-1,3,2-dioxaborolan-2-yl)phenyl]-;Piperazine, 1-methyl-4-[4-(4,4,5,5-tetramethyl-1,3,2-dioxaborolan-2-yl)benzoyl]-;(4-Methyl-1-piperazinyl)[4-(4,4,5,5-tetramethyl-1,3,2-dioxaborolan-2-yl)phenyl]methanone;1-Methyl-4-[4-(4,4,5,5-tetramethyl-1,3,2-dioxaborolan-2-yl)benzoyl]piperazine;(4-Methylpiperazin-1-yl)[4-(4,4,5,5-tetramethyl-[1,3,2]dioxaborolan-2-yl)phenyl]methanone;[4-[(4-Methyl-1-piperazinyl)carbonyl]phenyl]boronic acid pinacol ester;2-[4-(4-Methylpiperazin-1-ylcarbonyl)phenyl]-4,4,5,5-tetramethyl-1,3,2-dioxaborolane",
    "duplicated_cas_no": "",
    "SMILES": "CC1(C)OB(C2=CC=C(C(=O)N3CCN(C)CC3)C=C2)OC1(C)C",
    "meta_data": {
        "InChI": "InChI=1S/C18H27BN2O3/c1-17(2)18(3,4)24-19(23-17)15-8-6-14(7-9-15)16(22)21-12-10-20(5)11-13-21/h6-9H,10-13H2,1-5H3",
        "InChIKey": null,
        "Canonical SMILES": "O=C(C1=CC=C(C=C1)B2OC(C)(C)C(O2)(C)C)N3CCN(C)CC3",
        "Molecular Formula": "C<sub>18</sub>H<sub>27</sub>BN<sub>2</sub>O<sub>3</sub>",
        "Molecular Mass": "330.23",
        "Melting Point": "94 °C"
    }
}