{
    "cas_no": "56177-80-1",
    "key_name": "2-Ethoxy-5-fluoro-4(3<em>H</em>)-pyrimidinone",
    "cn_name": "2-乙氧基-5-氟尿嘧啶;",
    "alternate_name": "4(3<em>H</em>)-Pyrimidinone, 2-ethoxy-5-fluoro-;4(1<em>H</em>)-Pyrimidinone, 2-ethoxy-5-fluoro-;2-Ethoxy-5-fluoro-4(3<em>H</em>)-pyrimidinone;2-Ethoxy-5-fluoropyrimidin-4-ol;2-Ethoxy-5-fluoro-3,4-dihydropyrimidin-4-one;2-Ethoxy-5-fluoro-1<em>H</em>-pyrimidin-6-one;2-Ethoxy-5-fluoro-1,4-dihydropyrimidin-4-one",
    "duplicated_cas_no": "",
    "SMILES": "O(CC)C=1NC(=O)C(F)=CN1",
    "meta_data": {
        "InChI": "InChI=1S/C6H7FN2O2/c1-2-11-6-8-3-4(7)5(10)9-6/h3H,2H2,1H3,(H,8,9,10)",
        "InChIKey": null,
        "Canonical SMILES": "O=C1NC(=NC=C1F)OCC",
        "Molecular Formula": "C<sub>6</sub>H<sub>7</sub>FN<sub>2</sub>O<sub>2</sub>",
        "Molecular Mass": "158.13",
        "Melting Point": "182-183 °C"
    }
}