{
    "cas_no": "5462-71-5",
    "key_name": "4-Cyanophenylacetic acid",
    "cn_name": "4-氰基苯乙酸;",
    "alternate_name": "Benzeneacetic acid, 4-cyano-;Acetic acid, (<em>p</em>-cyanophenyl)-;4-Cyanobenzeneacetic acid;(<em>p</em>-Cyanophenyl)acetic acid;4-Cyanophenylacetic acid;NSC 14104;2-(4-Cyanophenyl)acetic acid",
    "duplicated_cas_no": "",
    "SMILES": "C(C(O)=O)C1=CC=C(C#N)C=C1",
    "meta_data": {
        "InChI": "InChI=1S/C9H7NO2/c10-6-8-3-1-7(2-4-8)5-9(11)12/h1-4H,5H2,(H,11,12)",
        "InChIKey": null,
        "Canonical SMILES": "N#CC1=CC=C(C=C1)CC(=O)O",
        "Molecular Formula": "C<sub>9</sub>H<sub>7</sub>NO<sub>2</sub>",
        "Molecular Mass": "161.16",
        "Melting Point": "152-154 °C"
    }
}