{
    "cas_no": "13681-87-3",
    "key_name": "Bis(diethyldithiocarbamato)copper",
    "cn_name": null,
    "alternate_name": "Copper, bis(diethylcarbamodithioato-κ<em>S</em>,κ<em>S</em>′)-, (<em>SP</em>-4-1)-;Copper, bis(diethyldithiocarbamato)-;Copper, bis(diethylcarbamodithioato-<em>S</em>,<em>S</em>′)-, (<em>SP</em>-4-1)-;Carbamodithioic acid, diethyl-, copper(2+) salt;Bis(diethyldithiocarbamato)copper;Copper(II) diethyldithiocarbamate;Bis(<em>N</em>,<em>N</em>-diethyldithiocarbamato)copper(II);Cupric diethyldithiocarbamate;Copper bis(diethyldithiocarbamate);Copper(2+) diethyldithiocarbamate;Bis(diethyldithiocarbamato)copper(II);Copper bis(<em>N</em>,<em>N</em>-diethyldithiocarbamate);Bis(<em>N</em>,<em>N</em>-diethyldithiocarbamato)copper;Bis[<em>N</em>,<em>N</em>-diethyl(dithiocarbamato-<em>S</em>,<em>S</em>′)]copper;Accelerator CDC;Carbamodithioic acid, diethyl-, copper(II) salt;Copper(II) <em>N</em>,<em>N</em>-diethyldithiocarbamate;Copper diethyldithiocarbamate;NSC 177697;Merkupral",
    "duplicated_cas_no": "4567-99-1;56953-97-0;223392-62-9",
    "SMILES": "N(CC)(CC)C=1[S-][Cu+2]2([S-]C(N(CC)CC)=[S]2)[S]1",
    "meta_data": {
        "InChI": "InChI=1S/2C5H11NS2.Cu/c2*1-3-6(4-2)5(7)8;/h2*3-4H2,1-2H3,(H,7,8);/q;;+2/p-2",
        "InChIKey": null,
        "Canonical SMILES": "[S]1=C([S-][Cu+2]12[S]=C([S-]2)N(CC)CC)N(CC)CC",
        "Molecular Formula": "C<sub>10</sub>H<sub>20</sub>CuN<sub>2</sub>S<sub>4</sub>",
        "Molecular Mass": "",
        "Melting Point": "189-191 °C"
    }
}