{
    "cas_no": "2172879-52-4",
    "key_name": "4-(4-Chlorophenyl)-6-(4-hydroxy-3-methoxyphenyl)-2(1<em>H</em>)-pyrimidinone",
    "cn_name": null,
    "alternate_name": "2(1<em>H</em>)-Pyrimidinone, 4-(4-chlorophenyl)-6-(4-hydroxy-3-methoxyphenyl)-;4-(4-Chlorophenyl)-6-(4-hydroxy-3-methoxyphenyl)-2(1<em>H</em>)-pyrimidinone",
    "duplicated_cas_no": "",
    "SMILES": "O=C1NC(=CC(=N1)C2=CC=C(Cl)C=C2)C3=CC(OC)=C(O)C=C3",
    "meta_data": {
        "InChI": "InChI=1S/C17H13ClN2O3/c1-23-16-8-11(4-7-15(16)21)14-9-13(19-17(22)20-14)10-2-5-12(18)6-3-10/h2-9,21H,1H3,(H,19,20,22)",
        "InChIKey": null,
        "Canonical SMILES": "O=C1N=C(C=C(N1)C=2C=CC(O)=C(OC)C2)C=3C=CC(Cl)=CC3",
        "Molecular Formula": "C<sub>17</sub>H<sub>13</sub>ClN<sub>2</sub>O<sub>3</sub>",
        "Molecular Mass": "328.75",
        "Melting Point": "306-308 °C"
    }
}