{
    "cas_no": "18642-23-4",
    "key_name": "Psoralidin",
    "cn_name": "补骨脂定;",
    "alternate_name": "6<em>H</em>-Benzofuro[3,2-<em>c</em>][1]benzopyran-6-one, 3,9-dihydroxy-2-(3-methyl-2-buten-1-yl)-;6<em>H</em>-Benzofuro[3,2-<em>c</em>][1]benzopyran-6-one, 3,9-dihydroxy-2-(3-methyl-2-butenyl)-;Psoralidin;3-Benzofurancarboxylic acid, 2-[2,4-dihydroxy-5-(3-methyl-2-butenyl)phenyl]-6-hydroxy-, δ-lactone;3,9-Dihydroxy-2-(3-methyl-2-buten-1-yl)-6<em>H</em>-benzofuro[3,2-<em>c</em>][1]benzopyran-6-one;3,9-Dihydroxy-2-(3-methylbut-2-enyl)-[1]benzofuro[3,2-<em>c</em>]chromen-6-one",
    "duplicated_cas_no": "",
    "SMILES": "O=C1C2=C(C=3C(O1)=CC(O)=C(CC=C(C)C)C3)OC=4C2=CC=C(O)C4",
    "meta_data": {
        "InChI": "InChI=1S/C20H16O5/c1-10(2)3-4-11-7-14-17(9-15(11)22)25-20(23)18-13-6-5-12(21)8-16(13)24-19(14)18/h3,5-9,21-22H,4H2,1-2H3",
        "InChIKey": null,
        "Canonical SMILES": "O=C1OC2=CC(O)=C(C=C2C=3OC=4C=C(O)C=CC4C13)CC=C(C)C",
        "Molecular Formula": "C<sub>20</sub>H<sub>16</sub>O<sub>5</sub>",
        "Molecular Mass": "336.34",
        "Melting Point": "315 °C (decomp)"
    }
}