{
    "cas_no": "18638-99-8",
    "key_name": "3,4,5-Trimethoxybenzylamine",
    "cn_name": "3,4,5-三甲氧基苄胺;",
    "alternate_name": "Benzenemethanamine, 3,4,5-trimethoxy-;Benzylamine, 3,4,5-trimethoxy-;3,4,5-Trimethoxybenzenemethanamine;3,4,5-Trimethoxybenzylamine;3,4,5-Trimethoxyphenylmethylamine;NSC 101336;(3,4,5-Trimethoxyphenyl)methanamine;3,4,5-Tris(methyloxy)benzylamine",
    "duplicated_cas_no": "",
    "SMILES": "O(C)C1=C(OC)C=C(CN)C=C1OC",
    "meta_data": {
        "InChI": "InChI=1S/C10H15NO3/c1-12-8-4-7(6-11)5-9(13-2)10(8)14-3/h4-5H,6,11H2,1-3H3",
        "InChIKey": null,
        "Canonical SMILES": "O(C=1C=C(C=C(OC)C1OC)CN)C",
        "Molecular Formula": "C<sub>10</sub>H<sub>15</sub>NO<sub>3</sub>",
        "Molecular Mass": "197.23",
        "Boiling Point": "122 °C"
    }
}