{
    "cas_no": "2868-37-3",
    "key_name": "Methyl cyclopropanecarboxylate",
    "cn_name": "环丙甲酸甲酯;",
    "alternate_name": "Cyclopropanecarboxylic acid, methyl ester;Methyl cyclopropanecarboxylate;Methyl cyclopropylcarboxylate;Cyclopropanoic acid methyl ester;Methyl cyclopropanoate",
    "duplicated_cas_no": "",
    "SMILES": "C(OC)(=O)C1CC1",
    "meta_data": {
        "InChI": "InChI=1S/C5H8O2/c1-7-5(6)4-2-3-4/h4H,2-3H2,1H3",
        "InChIKey": null,
        "Canonical SMILES": "O=C(OC)C1CC1",
        "Molecular Formula": "C<sub>5</sub>H<sub>8</sub>O<sub>2</sub>",
        "Molecular Mass": "100.12",
        "Boiling Point": "114.9 °C"
    }
}