{
    "cas_no": "21544-03-6",
    "key_name": "Diglycidyl tetrahydrophthalate",
    "cn_name": "四氢邻苯二甲酸二缩水甘油酯;",
    "alternate_name": "4-Cyclohexene-1,2-dicarboxylic acid, 1,2-bis(2-oxiranylmethyl) ester;4-Cyclohexene-1,2-dicarboxylic acid, bis(2,3-epoxypropyl) ester;4-Cyclohexene-1,2-dicarboxylic acid, bis(oxiranylmethyl) ester;1-Propanol, 2,3-epoxy-, 4-cyclohexene-1,2-dicarboxylate (2:1);Δ<sup>4</sup>-Tetrahydrophthalic acid diglycidyl ester;Diglycidyl Δ<sup>4</sup>-tetrahydrophthalate;Diglycidyl tetrahydrophthalate;Tetrahydrophthalic acid diglycidyl ester;Diglycidyl 4-cyclohexene-1,2-dicarboxylate;Diglycidyl 1,2,3,6-tetrahydrophthalate",
    "duplicated_cas_no": "",
    "SMILES": "C(OCC1CO1)(=O)C2C(C(OCC3CO3)=O)CC=CC2",
    "meta_data": {
        "InChI": "InChI=1S/C14H18O6/c15-13(19-7-9-5-17-9)11-3-1-2-4-12(11)14(16)20-8-10-6-18-10/h1-2,9-12H,3-8H2",
        "InChIKey": null,
        "Canonical SMILES": "O=C(OCC1OC1)C2CC=CCC2C(=O)OCC3OC3",
        "Molecular Formula": "C<sub>14</sub>H<sub>18</sub>O<sub>6</sub>",
        "Molecular Mass": "282.29",
        "Boiling Point": "200-202 °C @ Press: 5 Torr",
        "Density": "1.1545 g/cm³ @ Temp: 20 °C"
    }
}