{
    "cas_no": "60-56-0",
    "key_name": "Methimazole",
    "cn_name": "甲巯咪唑;2-巯基-1-甲基咪唑;1-甲基咪唑-2-硫醇;",
    "alternate_name": "2<em>H</em>-Imidazole-2-thione, 1,3-dihydro-1-methyl-;Imidazole-2-thiol, 1-methyl-;4-Imidazoline-2-thione, 1-methyl-;1,3-Dihydro-1-methyl-2<em>H</em>-imidazole-2-thione;Basolan;Danantizol;Favistan;Frentirox;Mercaptazole;2-Mercapto-1-methylimidazole;Mercazole;Mercazolyl;Metazolo;Methimazole;1-Methyl-2-mercaptoimidazole;Metothyrine;Tapazole;Thacapzol;Thiamazole;Metothyrin;Thycapzol;Methimazol;Thymidazole;1-Methyl-1<em>H</em>-imidazole-2-thiol;1-Methylimidazole-2-thiol;Metotirin;Strumazol;Thiamazol;Thymidazol;<em>N</em>-Methyl-2-mercaptoimidazole;1-Methyl-4-imidazoline-2-thione;1-Methyl-2-mercapto-1<em>H</em>-imidazole;1-Methylimidazole-2(3<em>H</em>)-thione;2-Mercapto-1-methyl-1<em>H</em>-imidazole;<em>N</em>-Methylimidazolethiol;1-Methyl-1,3-dihydroimidazole-2-thione;1-Methylimidazole-2-thione;2-Mercapto-<em>N</em>-methylimidazole;NSC 38608;MMI;Methylmercaptoimidazole;Metizol;Thyrozol;1-Methyl-2,3-dihydro-1<em>H</em>-imidazole-2-thione;3-Methyl-1<em>H</em>-imidazole-2-thione;Northyx;MeSH ID: D008713",
    "duplicated_cas_no": "4708-61-6;85916-84-3",
    "SMILES": "S=C1N(C)C=CN1",
    "meta_data": {
        "InChI": "InChI=1S/C4H6N2S/c1-6-3-2-5-4(6)7/h2-3H,1H3,(H,5,7)",
        "InChIKey": null,
        "Canonical SMILES": "S=C1NC=CN1C",
        "Molecular Formula": "C<sub>4</sub>H<sub>6</sub>N<sub>2</sub>S",
        "Molecular Mass": "114.17",
        "Boiling Point": "280 °C",
        "Melting Point": "146-148 °C",
        "Density": "1.35 g/cm³"
    }
}