{
    "cas_no": "3460-29-5",
    "key_name": "2,5-Dimethyl-4-nitrobenzenamine",
    "cn_name": null,
    "alternate_name": "Benzenamine, 2,5-dimethyl-4-nitro-;2,5-Xylidine, 4-nitro-;2,5-Dimethyl-4-nitrobenzenamine;2,5-Dimethyl-4-nitroaniline;1-Amino-2,5-dimethyl-4-nitrobenzene;NSC 135156;NSC 43207",
    "duplicated_cas_no": "",
    "SMILES": "N(=O)(=O)C1=C(C)C=C(N)C(C)=C1",
    "meta_data": {
        "InChI": "InChI=1S/C8H10N2O2/c1-5-4-8(10(11)12)6(2)3-7(5)9/h3-4H,9H2,1-2H3",
        "InChIKey": null,
        "Canonical SMILES": "O=N(=O)C1=CC(=C(N)C=C1C)C",
        "Molecular Formula": "C<sub>8</sub>H<sub>10</sub>N<sub>2</sub>O<sub>2</sub>",
        "Molecular Mass": "166.18",
        "Melting Point": "143-144 °C"
    }
}