{
    "cas_no": "668-94-0",
    "key_name": "4,5-Diphenylimidazole",
    "cn_name": null,
    "alternate_name": "1<em>H</em>-Imidazole, 4,5-diphenyl-;Imidazole, 4,5-diphenyl-;4,5-Diphenyl-1<em>H</em>-imidazole;4,5-Diphenylimidazole;NSC 59776",
    "duplicated_cas_no": "2490185-95-8",
    "SMILES": "C1(=C(N=CN1)C2=CC=CC=C2)C3=CC=CC=C3",
    "meta_data": {
        "InChI": "InChI=1S/C15H12N2/c1-3-7-12(8-4-1)14-15(17-11-16-14)13-9-5-2-6-10-13/h1-11H,(H,16,17)",
        "InChIKey": null,
        "Canonical SMILES": "N1=CNC(C=2C=CC=CC2)=C1C=3C=CC=CC3",
        "Molecular Formula": "C<sub>15</sub>H<sub>12</sub>N<sub>2</sub>",
        "Molecular Mass": "220.27",
        "Melting Point": "232-233 °C"
    }
}