{
    "cas_no": "2016-06-0",
    "key_name": "4-(4-Hydroxy-3,5-diiodophenoxy)-3,5-diiodobenzaldehyde",
    "cn_name": null,
    "alternate_name": "Benzaldehyde, 4-(4-hydroxy-3,5-diiodophenoxy)-3,5-diiodo-;4-(4-Hydroxy-3,5-diiodophenoxy)-3,5-diiodobenzaldehyde",
    "duplicated_cas_no": "",
    "SMILES": "O(C1=C(I)C=C(C=O)C=C1I)C2=CC(I)=C(O)C(I)=C2",
    "meta_data": {
        "InChI": "InChI=1S/C13H6I4O3/c14-8-3-7(4-9(15)12(8)19)20-13-10(16)1-6(5-18)2-11(13)17/h1-5,19H",
        "InChIKey": null,
        "Canonical SMILES": "O=CC1=CC(I)=C(OC2=CC(I)=C(O)C(I)=C2)C(I)=C1",
        "Molecular Formula": "C<sub>13</sub>H<sub>6</sub>I<sub>4</sub>O<sub>3</sub>",
        "Molecular Mass": "717.80",
        "Melting Point": "234 °C"
    }
}