{
    "cas_no": "1724-08-9",
    "key_name": "Bicyclo[2.2.1]heptane-2,3-dicarboxylic acid",
    "cn_name": null,
    "alternate_name": "Bicyclo[2.2.1]heptane-2,3-dicarboxylic acid;2,3-Norbornanedicarboxylic acid;3,6-Endomethylenephthalic acid, hexahydro-;1,2-Benzenedicarboxylic acid, hexahydro-3,6-<em>endo</em>-methylene-;NSC 169197",
    "duplicated_cas_no": "",
    "SMILES": "C(O)(=O)C1C(C(O)=O)C2CC1CC2",
    "meta_data": {
        "InChI": "InChI=1S/C9H12O4/c10-8(11)6-4-1-2-5(3-4)7(6)9(12)13/h4-7H,1-3H2,(H,10,11)(H,12,13)",
        "InChIKey": null,
        "Canonical SMILES": "O=C(O)C1C2CCC(C2)C1C(=O)O",
        "Molecular Formula": "C<sub>9</sub>H<sub>12</sub>O<sub>4</sub>",
        "Molecular Mass": "184.19",
        "Melting Point": "150 °C"
    }
}