{
    "cas_no": "107-80-2",
    "key_name": "1,3-Dibromobutane",
    "cn_name": "1,3-二溴丁烷;",
    "alternate_name": "Butane, 1,3-dibromo-;1,3-Dibromobutane;(±)-1,3-Dibromobutane",
    "duplicated_cas_no": "79390-67-3",
    "SMILES": "C(C(Br)C)CBr",
    "meta_data": {
        "InChI": "InChI=1S/C4H8Br2/c1-4(6)2-3-5/h4H,2-3H2,1H3",
        "InChIKey": null,
        "Canonical SMILES": "BrCCC(Br)C",
        "Molecular Formula": "C<sub>4</sub>H<sub>8</sub>Br<sub>2</sub>",
        "Molecular Mass": "215.91",
        "Boiling Point": "174 °C",
        "Density": "1.7904 g/cm³ @ Temp: 20 °C"
    }
}