{
    "cas_no": "54189-82-1",
    "key_name": "6-Chloro-<em>N</em>-methylnicotinamide",
    "cn_name": null,
    "alternate_name": "3-Pyridinecarboxamide, 6-chloro-<em>N</em>-methyl-;6-Chloro-<em>N</em>-methyl-3-pyridinecarboxamide;6-Chloro-<em>N</em>-methylnicotinamide;2-Chloro-5-<em>N</em>-methylcarbamoylpyridine;2-Chloro-<em>N</em>-methyl-5-pyridinecarboxamide",
    "duplicated_cas_no": "",
    "SMILES": "C(NC)(=O)C=1C=CC(Cl)=NC1",
    "meta_data": {
        "InChI": "InChI=1S/C7H7ClN2O/c1-9-7(11)5-2-3-6(8)10-4-5/h2-4H,1H3,(H,9,11)",
        "InChIKey": null,
        "Canonical SMILES": "O=C(NC)C1=CN=C(Cl)C=C1",
        "Molecular Formula": "C<sub>7</sub>H<sub>7</sub>ClN<sub>2</sub>O",
        "Molecular Mass": "170.60",
        "Melting Point": "152.8-153.4 °C"
    }
}