{
    "cas_no": "119162-46-8",
    "key_name": "3-(3-Methoxyphenyl)-5-isoxazolamine",
    "cn_name": null,
    "alternate_name": "5-Isoxazolamine, 3-(3-methoxyphenyl)-;3-(3-Methoxyphenyl)-5-isoxazolamine",
    "duplicated_cas_no": "",
    "SMILES": "O(C)C=1C=C(C=CC1)C=2C=C(N)ON2",
    "meta_data": {
        "InChI": "InChI=1S/C10H10N2O2/c1-13-8-4-2-3-7(5-8)9-6-10(11)14-12-9/h2-6H,11H2,1H3",
        "InChIKey": null,
        "Canonical SMILES": "N=1OC(N)=CC1C=2C=CC=C(OC)C2",
        "Molecular Formula": "C<sub>10</sub>H<sub>10</sub>N<sub>2</sub>O<sub>2</sub>",
        "Molecular Mass": "190.20",
        "Melting Point": "83-85 °C"
    }
}