{
    "cas_no": "452-10-8",
    "key_name": "2,4-Difluoroanisole",
    "cn_name": "2,4-二氟苯甲醚;",
    "alternate_name": "Benzene, 2,4-difluoro-1-methoxy-;Anisole, 2,4-difluoro-;2,4-Difluoro-1-methoxybenzene;2,4-Difluoroanisole;2,4-Difluoroanisol;1,3-Difluoro-4-methoxybenzene",
    "duplicated_cas_no": "",
    "SMILES": "O(C)C1=C(F)C=C(F)C=C1",
    "meta_data": {
        "InChI": "InChI=1S/C7H6F2O/c1-10-7-3-2-5(8)4-6(7)9/h2-4H,1H3",
        "InChIKey": null,
        "Canonical SMILES": "FC1=CC=C(OC)C(F)=C1",
        "Molecular Formula": "C<sub>7</sub>H<sub>6</sub>F<sub>2</sub>O",
        "Molecular Mass": "144.12",
        "Boiling Point": "52 °C",
        "Density": "1.2522 g/cm³ @ Temp: 20 °C"
    }
}