{
    "cas_no": "90-41-5",
    "key_name": "2-Aminobiphenyl",
    "cn_name": "邻氨基联苯;2-氨基联苯;",
    "alternate_name": "[1,1′-Biphenyl]-2-amine;2-Biphenylamine;<em>o</em>-Aminodiphenyl;2-Aminodiphenyl;<em>o</em>-Phenylaniline;<em>o</em>-Biphenylamine;2-Aminobiphenyl;<em>o</em>-Aminobiphenyl;2-Phenylaniline;2-Phenylbenzenamine;NSC 7661;2-Amino-1,1′-biphenyl;2-Amino-1,1-Biphenyl",
    "duplicated_cas_no": "",
    "SMILES": "NC1=C(C2=CC=CC=C2)C=CC=C1",
    "meta_data": {
        "InChI": "InChI=1S/C12H11N/c13-12-9-5-4-8-11(12)10-6-2-1-3-7-10/h1-9H,13H2",
        "InChIKey": null,
        "Canonical SMILES": "NC=1C=CC=CC1C=2C=CC=CC2",
        "Molecular Formula": "C<sub>12</sub>H<sub>11</sub>N",
        "Molecular Mass": "169.22",
        "Boiling Point": "299 °C",
        "Melting Point": "51 °C"
    }
}