{
    "cas_no": "850-52-2",
    "key_name": "Altrenogest",
    "cn_name": "烯丙孕素;四烯雌酮;",
    "alternate_name": "Estra-4,9,11-trien-3-one, 17-hydroxy-17-(2-propen-1-yl)-, (17β)-;Estra-4,9,11-trien-3-one, 17α-allyl-17-hydroxy-;Estra-4,9,11-trien-3-one, 17-hydroxy-17-(2-propenyl)-, (17β)-;(17β)-17-Hydroxy-17-(2-propen-1-yl)estra-4,9,11-trien-3-one;DRC 6246;Allyltrenbolone;R 2267;RU 2267;Altrenogest;Regumate;A 35957;Matrix;Matrix (progestogen)",
    "duplicated_cas_no": "",
    "SMILES": "C[C@@]12[C@]([C@]3(C(C=C1)=C4C(CC3)=CC(=O)CC4)[H])(CC[C@]2(CC=C)O)[H]",
    "meta_data": {
        "InChI": "InChI=1S/C21H26O2/c1-3-10-21(23)12-9-19-18-6-4-14-13-15(22)5-7-16(14)17(18)8-11-20(19,21)2/h3,8,11,13,18-19,23H,1,4-7,9-10,12H2,2H3/t18-,19+,20+,21+/m1/s1",
        "InChIKey": null,
        "Canonical SMILES": "O=C1C=C2C(=C3C=CC4(C)C(CCC4(O)CC=C)C3CC2)CC1",
        "Molecular Formula": "C<sub>21</sub>H<sub>26</sub>O<sub>2</sub>",
        "Molecular Mass": "310.43",
        "Melting Point": "120 °C"
    }
}