{
    "cas_no": "2655-15-4",
    "key_name": "2,3,5-Trimethacarb",
    "cn_name": "2,3,5-混杀威;2,3,5-三甲基苯基N-甲基氨基甲酸酯;",
    "alternate_name": "Phenol, 2,3,5-trimethyl-, 1-(<em>N</em>-methylcarbamate);Carbamic acid, methyl-, 2,3,5-trimethylphenyl ester;Phenol, 2,3,5-trimethyl-, methylcarbamate;2,3,5-Trimethylphenyl methylcarbamate;SD 8786;2,3,5-Landrin;Landrin B;2,3,5-Trimethacarb;2,3,5-Trimethylphenyl <em>N</em>-methylcarbamate",
    "duplicated_cas_no": "",
    "SMILES": "O(C(NC)=O)C1=C(C)C(C)=CC(C)=C1",
    "meta_data": {
        "InChI": "InChI=1S/C11H15NO2/c1-7-5-8(2)9(3)10(6-7)14-11(13)12-4/h5-6H,1-4H3,(H,12,13)",
        "InChIKey": null,
        "Canonical SMILES": "O=C(OC=1C=C(C=C(C1C)C)C)NC",
        "Molecular Formula": "C<sub>11</sub>H<sub>15</sub>NO<sub>2</sub>",
        "Molecular Mass": "193.24",
        "Melting Point": "123-124 °C"
    }
}