{
    "cas_no": "2411-83-8",
    "key_name": "Methyl 2,3-dihydroxybenzoate",
    "cn_name": null,
    "alternate_name": "Benzoic acid, 2,3-dihydroxy-, methyl ester;<em>o</em>-Pyrocatechuic acid, methyl ester;Methyl 2,3-dihydroxybenzoate;2,3-Dihydroxybenzoic acid methyl ester;NSC 174147",
    "duplicated_cas_no": "",
    "SMILES": "C(OC)(=O)C1=C(O)C(O)=CC=C1",
    "meta_data": {
        "InChI": "InChI=1S/C8H8O4/c1-12-8(11)5-3-2-4-6(9)7(5)10/h2-4,9-10H,1H3",
        "InChIKey": null,
        "Canonical SMILES": "O=C(OC)C=1C=CC=C(O)C1O",
        "Molecular Formula": "C<sub>8</sub>H<sub>8</sub>O<sub>4</sub>",
        "Molecular Mass": "168.15",
        "Melting Point": "79-80 °C"
    }
}