{
    "cas_no": "97-73-4",
    "key_name": "Propanoic acid, 2-hydroxy-, 1,1′-anhydride",
    "cn_name": "2,6-二氟氯苄;2,6-二氟苄基基氯;",
    "alternate_name": "Propanoic acid, 2-hydroxy-, 1,1′-anhydride;Lactic anhydride;Propanoic acid, 2-hydroxy-, anhydride;2-Hydroxypropanoic anhydride;Lactic acid anhydride;2-Hydroxypropanoyl 2-hydroxypropanoate",
    "duplicated_cas_no": "",
    "SMILES": "C(OC(C(C)O)=O)(C(C)O)=O",
    "meta_data": {
        "InChI": "InChI=1S/C6H10O5/c1-3(7)5(9)11-6(10)4(2)8/h3-4,7-8H,1-2H3",
        "InChIKey": null,
        "Canonical SMILES": "O=C(OC(=O)C(O)C)C(O)C",
        "Molecular Formula": "C<sub>6</sub>H<sub>10</sub>O<sub>5</sub>",
        "Molecular Mass": "162.14",
        "Boiling Point": "125-128 °C @ Press: 33 Torr"
    }
}