{
    "cas_no": "91465-08-6",
    "key_name": "λ-Cyhalothrin",
    "cn_name": "高效氯氟氰菊酯;三氟氯氰菊酯;2,2-二甲基-3-(2-氯-3,3,3-三氟-1-丙烯基)环丙烷羧酸-alpha-氰基-3-苯氧基苄;",
    "alternate_name": "Cyclopropanecarboxylic acid, 3-[(1<em>Z</em>)-2-chloro-3,3,3-trifluoro-1-propen-1-yl]-2,2-dimethyl-, (<em>R</em>)-cyano(3-phenoxyphenyl)methyl ester, (1<em>S</em>,3<em>S</em>)-<em>rel</em>-;Cyclopropanecarboxylic acid, 3-(2-chloro-3,3,3-trifluoro-1-propenyl)-2,2-dimethyl-, cyano(3-phenoxyphenyl)methyl ester, [1α(<em>S</em>*),3α(<em>Z</em>)]-(±)-;Cyclopropanecarboxylic acid, 3-[(1<em>Z</em>)-2-chloro-3,3,3-trifluoro-1-propenyl]-2,2-dimethyl-, (<em>R</em>)-cyano(3-phenoxyphenyl)methyl ester, (1<em>S</em>,3<em>S</em>)-<em>rel</em>-;Karate;PP 321;lambda-Cyhalothrin;Cyhalothrin K;Icon;Karate 1E;ICI-A 0321;λ-Cyhalothrin;Cyclopropanecarboxylic acid, 3-[(1<em>Z</em>)-2-chloro-3,3,3-trifluoro-1-propenyl]-2,2-dimethyl-, (1<em>R</em>)-cyano(3-phenoxyphenyl)methyl ester, (1<em>S</em>,3<em>S</em>)-;Karate Z;Hallmark;Karate King;Karate Zeon;Kung Fu;Warrior;Matador;Matador (insecticide);Scimitar;Demand;Warrior T;Spectracide Trazicide;Spectracide Triazicide Soil &amp; Turf Insect Killer;Warrior Zeon;Taiga Z;Karate K;NUP 05077;Lamdex;Warrior II;A 12871A;Demand Pestab;ICON Maxx;REEVA 5;Karate Zeon 050CS;Karate Zeon 100CS;Grenade ER;Molniya;Karate 2.5EC;Ambush Super;λ-Cialotrina;Lamtox;Cyonara",
    "duplicated_cas_no": "96777-99-0",
    "SMILES": "C(=C(/C(F)(F)F)\\Cl)\\[C@@H]1[C@H](C(O[C@@H](C#N)C2=CC(OC3=CC=CC=C3)=CC=C2)=O)C1(C)C",
    "meta_data": {
        "InChI": "InChI=1/C23H19ClF3NO3/c1-22(2)17(12-19(24)23(25,26)27)20(22)21(29)31-18(13-28)14-7-6-10-16(11-14)30-15-8-4-3-5-9-15/h3-12,17-18,20H,1-2H3/b19-12-/t17-,18+,20-/s2",
        "InChIKey": null,
        "Canonical SMILES": "N#CC(OC(=O)C1C(C=C(Cl)C(F)(F)F)C1(C)C)C=2C=CC=C(OC=3C=CC=CC3)C2",
        "Molecular Formula": "C<sub>23</sub>H<sub>19</sub>ClF<sub>3</sub>NO<sub>3</sub>",
        "Molecular Mass": "449.85",
        "Melting Point": "49.2 °C",
        "Density": "1.3 g/cm³"
    }
}