{
    "cas_no": "1944-05-4",
    "key_name": "2,3,4,5,6-Pentafluoro-α-phenylbenzenemethanol",
    "cn_name": "2,3,4,5,6-五氟二苯基甲醛;",
    "alternate_name": "Benzenemethanol, 2,3,4,5,6-pentafluoro-α-phenyl-;Benzhydrol, 2,3,4,5,6-pentafluoro-;2,3,4,5,6-Pentafluoro-α-phenylbenzenemethanol;2,3,4,5,6-Pentafluorobenzhydrol;(Pentafluorophenyl)(phenyl)methanol;1-Phenyl-1-(2,3,4,5,6-pentafluorophenyl)methanol;(2,3,4,5,6-Pentafluorophenyl)-phenylmethanol",
    "duplicated_cas_no": "",
    "SMILES": "C(O)(C1=C(F)C(F)=C(F)C(F)=C1F)C2=CC=CC=C2",
    "meta_data": {
        "InChI": "InChI=1S/C13H7F5O/c14-8-7(9(15)11(17)12(18)10(8)16)13(19)6-4-2-1-3-5-6/h1-5,13,19H",
        "InChIKey": null,
        "Canonical SMILES": "FC=1C(F)=C(F)C(=C(F)C1F)C(O)C=2C=CC=CC2",
        "Molecular Formula": "C<sub>13</sub>H<sub>7</sub>F<sub>5</sub>O",
        "Molecular Mass": "274.19",
        "Boiling Point": "115-117 °C @ Press: 1.7 Torr",
        "Melting Point": "47 °C"
    }
}