{
    "cas_no": "106-36-5",
    "key_name": "Propyl propionate",
    "cn_name": "丙酸正丙酯;丙酸丙酯;",
    "alternate_name": "Propanoic acid, propyl ester;Propionic acid, propyl ester;Propyl propionate;<em>n</em>-Propyl propionate;Propyl propanoate;<em>n</em>-Propyl <em>n</em>-propanoate;NSC 72022",
    "duplicated_cas_no": "",
    "SMILES": "C(OCCC)(CC)=O",
    "meta_data": {
        "InChI": "InChI=1S/C6H12O2/c1-3-5-8-6(7)4-2/h3-5H2,1-2H3",
        "InChIKey": null,
        "Canonical SMILES": "O=C(OCCC)CC",
        "Molecular Formula": "C<sub>6</sub>H<sub>12</sub>O<sub>2</sub>",
        "Molecular Mass": "116.16",
        "Boiling Point": "122.5 °C",
        "Melting Point": "-75.9 °C",
        "Density": "0.878 g/cm³ @ Temp: 20 °C"
    }
}