{
    "cas_no": "541-53-7",
    "key_name": "Dithiobiuret",
    "cn_name": "2,4-二硫代缩二脲;二硫代缩二脲;",
    "alternate_name": "Thioimidodicarbonic diamide ([(H<sub>2</sub>N)C(S)]<sub>2</sub>NH);Biuret, dithio-;Biuret, 2,4-dithio-;Allophanimidic acid, dithio-;2,4-Dithiobiuret;Imidodicarbonimidothioic diamide;Dithiobiuret;Imidodicarbonodithioic diamide;NSC 7761;Dicarbonodithioimidic diamide;(Carbamothioylamino)methanethioamide",
    "duplicated_cas_no": "26641-95-2",
    "SMILES": "N(C(N)=S)C(N)=S",
    "meta_data": {
        "InChI": "InChI=1S/C2H5N3S2/c3-1(6)5-2(4)7/h(H5,3,4,5,6,7)",
        "InChIKey": null,
        "Canonical SMILES": "S=C(N)NC(=S)N",
        "Molecular Formula": "C<sub>2</sub>H<sub>5</sub>N<sub>3</sub>S<sub>2</sub>",
        "Molecular Mass": "135.21",
        "Melting Point": "181 °C (decomp)"
    }
}