{
    "cas_no": "16118-49-3",
    "key_name": "Carbetamide",
    "cn_name": "卡草胺;雷克拉；草长灭；草威胺；N-乙基2-(苯氨基羰基氧基)丙酰胺；双酰草胺;",
    "alternate_name": "Propanamide, <em>N</em>-ethyl-2-[[(phenylamino)carbonyl]oxy]-, (2<em>R</em>)-;Lactamide, <em>N</em>-ethyl-, carbanilate (ester), <span class=\"text-smallcaps\">D</span>-;Propanamide, <em>N</em>-ethyl-2-[[(phenylamino)carbonyl]oxy]-, (<em>R</em>)-;(2<em>R</em>)-<em>N</em>-Ethyl-2-[[(phenylamino)carbonyl]oxy]propanamide;Carbetamide;RP 11561;11561RP;Carbethamide;Carbetamex;Legurame PM",
    "duplicated_cas_no": "25227-21-8",
    "SMILES": "N(C(O[C@@H](C(NCC)=O)C)=O)C1=CC=CC=C1",
    "meta_data": {
        "InChI": "InChI=1S/C12H16N2O3/c1-3-13-11(15)9(2)17-12(16)14-10-7-5-4-6-8-10/h4-9H,3H2,1-2H3,(H,13,15)(H,14,16)/t9-/m1/s1",
        "InChIKey": null,
        "Canonical SMILES": "O=C(OC(C(=O)NCC)C)NC=1C=CC=CC1",
        "Molecular Formula": "C<sub>12</sub>H<sub>16</sub>N<sub>2</sub>O<sub>3</sub>",
        "Molecular Mass": "236.27",
        "Melting Point": "119 °C"
    }
}