{
    "cas_no": "2094-98-6",
    "key_name": "1,1′-Azobis(cyclohexane-1-carbonitrile)",
    "cn_name": "1,1\"-偶氮(氰基环己烷);",
    "alternate_name": "Cyclohexanecarbonitrile, 1,1′-(1,2-diazenediyl)bis-;Cyclohexanecarbonitrile, 1,1′-azodi-;Cyclohexanecarbonitrile, 1,1′-azobis-;1,1′-Azobis[cyclohexanecarbonitrile];1,1′-Azobis(cyclohexanenitrile);1,1′-Azodicyclohexanecarbonitrile;1-Azo-1-cyanocyclohexane;Azobis(1-cyanocyclohexane);1,1′-Azobis[1-cyanocyclohexane];1,1′-Azobis(1-cyclohexanecarbonitrile);Azocyclohexane-1,1′-dinitrile;Vazo 88;V 40;V 40 (initiator);1,1′-Azodi(hexahydrobenzonitrile);<em>N</em>,<em>N</em>-Azobis(cyclohexanecarbonitrile);ACHN;1,1′-Azobis(cyclohexane-1-carbonitrile);ACCN;1,1′-Azobis(cyanocyclohexane);V 88",
    "duplicated_cas_no": "95210-42-7",
    "SMILES": "N(=NC1(C#N)CCCCC1)C2(C#N)CCCCC2",
    "meta_data": {
        "InChI": "InChI=1S/C14H20N4/c15-11-13(7-3-1-4-8-13)17-18-14(12-16)9-5-2-6-10-14/h1-10H2",
        "InChIKey": null,
        "Canonical SMILES": "N#CC1(N=NC2(C#N)CCCCC2)CCCCC1",
        "Molecular Formula": "C<sub>14</sub>H<sub>20</sub>N<sub>4</sub>",
        "Molecular Mass": "244.34",
        "Melting Point": "116 °C"
    }
}