{
    "cas_no": "3424-82-6",
    "key_name": "<em>o</em>,<em>p</em>′-DDE",
    "cn_name": "3-邻氯苯基-2-对氯苯基-1,1-二氯乙烯;邻,对\"-滴滴伊;",
    "alternate_name": "Benzene, 1-chloro-2-[2,2-dichloro-1-(4-chlorophenyl)ethenyl]-;Ethylene, 1,1-dichloro-2-(<em>o</em>-chlorophenyl)-2-(<em>p</em>-chlorophenyl)-;1-Chloro-2-[2,2-dichloro-1-(4-chlorophenyl)ethenyl]benzene;1,1-Dichloro-2-(<em>o</em>-chlorophenyl)-2-(<em>p</em>-chlorophenyl)ethylene;<em>o</em>,<em>p</em>′-DDE;2-(2-Chlorophenyl)-2-(4-chlorophenyl)-1,1-dichloroethylene;2,4′-DDE;2,4′-Dichlorodiphenyldichloroethylene;NSC 59908;<em>o</em>,<em>p</em>′-Dichlorodiphenyldichloroethylene;1-Chloro-2-(2,2-dichloro-1-(4-chlorophenyl)vinyl)benzene",
    "duplicated_cas_no": "",
    "SMILES": "C(=C(Cl)Cl)(C1=C(Cl)C=CC=C1)C2=CC=C(Cl)C=C2",
    "meta_data": {
        "InChI": "InChI=1S/C14H8Cl4/c15-10-7-5-9(6-8-10)13(14(17)18)11-3-1-2-4-12(11)16/h1-8H",
        "InChIKey": null,
        "Canonical SMILES": "ClC(Cl)=C(C1=CC=C(Cl)C=C1)C=2C=CC=CC2Cl",
        "Molecular Formula": "C<sub>14</sub>H<sub>8</sub>Cl<sub>4</sub>",
        "Molecular Mass": "318.03",
        "Melting Point": "78.4-79.5 °C"
    }
}