{
    "cas_no": "96-49-1",
    "key_name": "Ethylene carbonate",
    "cn_name": "碳酸乙烯酯;",
    "alternate_name": "1,3-Dioxolan-2-one;Carbonic acid, cyclic ethylene ester;Cyclic ethylene carbonate;Ethylene carbonate;Ethylene glycol carbonate;Glycol carbonate;Texacar EC;Jeffsol EC;NSC 11801;NSC 16568;2-Oxo-1,3-dioxolane;2-Dioxolanone;JS 1002;PC Dilanon",
    "duplicated_cas_no": "",
    "SMILES": "O=C1OCCO1",
    "meta_data": {
        "InChI": "InChI=1S/C3H4O3/c4-3-5-1-2-6-3/h1-2H2",
        "InChIKey": null,
        "Canonical SMILES": "O=C1OCCO1",
        "Molecular Formula": "C<sub>3</sub>H<sub>4</sub>O<sub>3</sub>",
        "Molecular Mass": "88.06",
        "Boiling Point": "248 °C",
        "Melting Point": "36.4 °C",
        "Density": "1.3214 g/cm³ @ Temp: 39 °C"
    }
}