{
    "cas_no": "5932-34-3",
    "key_name": "1<em>H</em>-Pyrazole-3-carboxylic acid, 4-bromo-, ethyl ester",
    "cn_name": null,
    "alternate_name": "1<em>H</em>-Pyrazole-3-carboxylic acid, 4-bromo-, ethyl ester;Pyrazole-3-carboxylic acid, 4-bromo-, ethyl ester;Pyrazole-3(<em>or</em> 5)-carboxylic acid, 4-bromo-, ethyl ester;Ethyl 4-bromo-1<em>H</em>-pyrazole-3-carboxylate",
    "duplicated_cas_no": "",
    "SMILES": "C(OCC)(=O)C=1C(Br)=CNN1",
    "meta_data": {
        "InChI": "InChI=1S/C6H7BrN2O2/c1-2-11-6(10)5-4(7)3-8-9-5/h3H,2H2,1H3,(H,8,9)",
        "InChIKey": null,
        "Canonical SMILES": "O=C(OCC)C1=NNC=C1Br",
        "Molecular Formula": "C<sub>6</sub>H<sub>7</sub>BrN<sub>2</sub>O<sub>2</sub>",
        "Molecular Mass": "219.04",
        "Melting Point": "185-187 °C"
    }
}