{
    "cas_no": "55362-80-6",
    "key_name": "9-Bromononanol",
    "cn_name": "9-溴-1-壬醇;",
    "alternate_name": "1-Nonanol, 9-bromo-;9-Bromo-1-nonanol;9-Bromononanol;1-Hydroxy-9-bromononane",
    "duplicated_cas_no": "",
    "SMILES": "C(CCCCBr)CCCCO",
    "meta_data": {
        "InChI": "InChI=1S/C9H19BrO/c10-8-6-4-2-1-3-5-7-9-11/h11H,1-9H2",
        "InChIKey": null,
        "Canonical SMILES": "BrCCCCCCCCCO",
        "Molecular Formula": "C<sub>9</sub>H<sub>19</sub>BrO",
        "Molecular Mass": "223.15",
        "Boiling Point": "125-126 °C @ Press: 2 Torr",
        "Melting Point": "33.5 °C"
    }
}