{
    "cas_no": "13051-49-5",
    "key_name": "5-(Acetyloxy)-3-chloro-2-pentanone",
    "cn_name": "乙酸-3-乙酰基-3-氯-丙酯;品-氯-&gamma;-乙酰丙基乙酸酯;",
    "alternate_name": "2-Pentanone, 5-(acetyloxy)-3-chloro-;2-Pentanone, 3-chloro-5-hydroxy-, acetate;5-(Acetyloxy)-3-chloro-2-pentanone;5-Acetoxy-3-chloro-2-pentanone;3-Chloro-4-oxopentyl acetate;3-Chloro-5-acetoxy-2-pentanone;3-Chloro-3-acetopropyl acetate",
    "duplicated_cas_no": "119867-66-2;1012795-35-5",
    "SMILES": "C(C(C(C)=O)Cl)COC(C)=O",
    "meta_data": {
        "InChI": "InChI=1S/C7H11ClO3/c1-5(9)7(8)3-4-11-6(2)10/h7H,3-4H2,1-2H3",
        "InChIKey": null,
        "Canonical SMILES": "O=C(OCCC(Cl)C(=O)C)C",
        "Molecular Formula": "C<sub>7</sub>H<sub>11</sub>ClO<sub>3</sub>",
        "Molecular Mass": "178.61",
        "Boiling Point": "90-93 °C @ Press: 2 Torr",
        "Density": "1.165 g/cm³ @ Temp: 20 °C"
    }
}