{
    "cas_no": "625-27-4",
    "key_name": "2-Methyl-2-pentene",
    "cn_name": "2-甲基-2-戊烯;",
    "alternate_name": "2-Pentene, 2-methyl-;2-Methyl-2-pentene;4-Methyl-3-pentene;2-Ethyl-1,1-dimethylethylene;2,4-Dimethyl-2-butene;1,1-Dimethyl-1-butene;NSC 73910",
    "duplicated_cas_no": "",
    "SMILES": "C(=C(C)C)CC",
    "meta_data": {
        "InChI": "InChI=1S/C6H12/c1-4-5-6(2)3/h5H,4H2,1-3H3",
        "InChIKey": null,
        "Canonical SMILES": "C(=C(C)C)CC",
        "Molecular Formula": "C<sub>6</sub>H<sub>12</sub>",
        "Molecular Mass": "84.16",
        "Boiling Point": "67.3 °C",
        "Melting Point": "-135 °C",
        "Density": "0.69145 g/cm³ @ Temp: 15 °C"
    }
}