{
    "cas_no": "39085-59-1",
    "key_name": "2,4,6-Triisopropylbenzenesulfonyl hydrazide",
    "cn_name": "2,4,6-三异丙基苯磺酰基肼;",
    "alternate_name": "Benzenesulfonic acid, 2,4,6-tris(1-methylethyl)-, hydrazide;2,4,6-Triisopropylbenzenesulfonyl hydrazide;2,4,6-Triisopropylbenzenesulfonohydrazide;(2,4,6-Triisopropylbenzenesulfonyl)hydrazine;Trisylhydrazine;2,4,6-Triisopropylbenzenesulfonic acid hydrazide;[(2,4,6-Triisopropylphenyl)sulfonyl] hydrazide;Trisylhydrazide;NSC 620119;2,4,6-Triisopropylphenylsulfonylhydrazine;2,4,6-Tri(propan-2-yl)benzenesulfonohydrazide",
    "duplicated_cas_no": "148549-38-6;1057856-07-1",
    "SMILES": "S(NN)(=O)(=O)C1=C(C(C)C)C=C(C(C)C)C=C1C(C)C",
    "meta_data": {
        "InChI": "InChI=1S/C15H26N2O2S/c1-9(2)12-7-13(10(3)4)15(20(18,19)17-16)14(8-12)11(5)6/h7-11,17H,16H2,1-6H3",
        "InChIKey": null,
        "Canonical SMILES": "O=S(=O)(NN)C=1C(=CC(=CC1C(C)C)C(C)C)C(C)C",
        "Molecular Formula": "C<sub>15</sub>H<sub>26</sub>N<sub>2</sub>O<sub>2</sub>S",
        "Molecular Mass": "298.44",
        "Melting Point": "117-119 °C"
    }
}