{
    "cas_no": "69056-38-8",
    "key_name": "Sapropterin dihydrochloride",
    "cn_name": "(6R)-5,6,7,8-四氢生物蝶呤 二盐酸盐;",
    "alternate_name": "4(3<em>H</em>)-Pteridinone, 2-amino-6-[(1<em>R</em>,2<em>S</em>)-1,2-dihydroxypropyl]-5,6,7,8-tetrahydro-, hydrochloride (1:2), (6<em>R</em>)-;4(1<em>H</em>)-Pteridinone, 2-amino-6-(1,2-dihydroxypropyl)-5,6,7,8-tetrahydro-, dihydrochloride, [6<em>R</em>-[6<em>R</em>*(1<em>R</em>*,2<em>S</em>*)]]-;4(1<em>H</em>)-Pteridinone, 2-amino-6-[(1<em>R</em>,2<em>S</em>)-1,2-dihydroxypropyl]-5,6,7,8-tetrahydro-, dihydrochloride, (6<em>R</em>)-;SUN 0588;(6β)-5,6,7,8-Tetrahydro-<span class=\"text-smallcaps\">L</span>-biopterin dihydrochloride;Biopten;Sapropterin dihydrochloride;Shiratori SN 0588;BioMarin T 1401;Kuvan",
    "duplicated_cas_no": "90687-77-7",
    "SMILES": "O=C1C2=C(NC[C@]([C@H]([C@H](C)O)O)(N2)[H])NC(N)=N1.Cl",
    "meta_data": {
        "InChI": "InChI=1S/C9H15N5O3.2ClH/c1-3(15)6(16)4-2-11-7-5(12-4)8(17)14-9(10)13-7;;/h3-4,6,12,15-16H,2H2,1H3,(H4,10,11,13,14,17);2*1H/t3-,4+,6-;;/m0../s1",
        "InChIKey": null,
        "Canonical SMILES": "Cl.O=C1N=C(N)NC=2NCC(NC12)C(O)C(O)C",
        "Molecular Formula": "C<sub>9</sub>H<sub>15</sub>N<sub>5</sub>O<sub>3</sub>.2ClH",
        "Molecular Mass": "",
        "Melting Point": "245-246 °C (decomp)"
    }
}