{
    "cas_no": "1710-98-1",
    "key_name": "4-<em>tert</em>-Butylbenzoyl chloride",
    "cn_name": "对叔丁基苯甲酰氯;4-叔丁基苯甲酰氯;",
    "alternate_name": "Benzoyl chloride, 4-(1,1-dimethylethyl)-;Benzoyl chloride, <em>p</em>-<em>tert</em>-butyl-;4-(1,1-Dimethylethyl)benzoyl chloride;<em>p</em>-<em>tert</em>-Butylbenzoyl chloride;4-<em>tert</em>-Butylbenzoyl chloride;4-<em>tert</em>-Butylbenzoic acid chloride",
    "duplicated_cas_no": "",
    "SMILES": "C(C)(C)(C)C1=CC=C(C(Cl)=O)C=C1",
    "meta_data": {
        "InChI": "InChI=1S/C11H13ClO/c1-11(2,3)9-6-4-8(5-7-9)10(12)13/h4-7H,1-3H3",
        "InChIKey": null,
        "Canonical SMILES": "O=C(Cl)C1=CC=C(C=C1)C(C)(C)C",
        "Molecular Formula": "C<sub>11</sub>H<sub>13</sub>ClO",
        "Molecular Mass": "196.67",
        "Boiling Point": "107-109 °C @ Press: 4 Torr",
        "Melting Point": "177.5-179 °C"
    }
}