{
    "cas_no": "6299-87-2",
    "key_name": "6-Hydroxypyrimidine-4-carboxylic acid",
    "cn_name": "6-羟基-4-嘧啶甲酸;",
    "alternate_name": "4-Pyrimidinecarboxylic acid, 1,6-dihydro-6-oxo-;4-Pyrimidinecarboxylic acid, 6-hydroxy-;1,6-Dihydro-6-oxo-4-pyrimidinecarboxylic acid;6-Hydroxypyrimidine-4-carboxylic acid;NSC 45047;6-Oxo-1,6-dihydropyrimidine-4-carboxylic acid",
    "duplicated_cas_no": "",
    "SMILES": "C(O)(=O)C1=CC(=O)N=CN1",
    "meta_data": {
        "InChI": "InChI=1S/C5H4N2O3/c8-4-1-3(5(9)10)6-2-7-4/h1-2H,(H,9,10)(H,6,7,8)",
        "InChIKey": null,
        "Canonical SMILES": "O=C1N=CNC(=C1)C(=O)O",
        "Molecular Formula": "C<sub>5</sub>H<sub>4</sub>N<sub>2</sub>O<sub>3</sub>",
        "Molecular Mass": "140.10",
        "Melting Point": "268-270 °C"
    }
}