{
    "cas_no": "637-55-8",
    "key_name": "Octadecanoic acid, phenyl ester",
    "cn_name": "硬脂酸苯酯;十八酸苯酯;",
    "alternate_name": "Octadecanoic acid, phenyl ester;Stearic acid, phenyl ester;Phenyl stearate;Phenyl octadecanoate;NSC 57588",
    "duplicated_cas_no": "",
    "SMILES": "O(C(CCCCCCCCCCCCCCCCC)=O)C1=CC=CC=C1",
    "meta_data": {
        "InChI": "InChI=1S/C24H40O2/c1-2-3-4-5-6-7-8-9-10-11-12-13-14-15-19-22-24(25)26-23-20-17-16-18-21-23/h16-18,20-21H,2-15,19,22H2,1H3",
        "InChIKey": null,
        "Canonical SMILES": "O=C(OC=1C=CC=CC1)CCCCCCCCCCCCCCCCC",
        "Molecular Formula": "C<sub>24</sub>H<sub>40</sub>O<sub>2</sub>",
        "Molecular Mass": "360.57",
        "Boiling Point": "200-205 °C @ Press: 2 Torr",
        "Melting Point": "52 °C"
    }
}