{
    "cas_no": "2981-10-4",
    "key_name": "1-(1-Cyclohexen-1-yl)piperidine",
    "cn_name": "1-(1-哌啶基)环己烯;1-(1-环己烯基)哌啶;",
    "alternate_name": "Piperidine, 1-(1-cyclohexen-1-yl)-;1-(1-Cyclohexen-1-yl)piperidine;1-Piperidinocyclohexene;1-Piperidino-1-cyclohexene;1-Piperidinylcyclohexene;1-(1-Cyclohexenyl)piperidine;<em>N</em>-(1-Cyclohexen-1-yl)piperidine;<em>N</em>-(1-Cyclohexenyl)piperidine;1-(Cyclohex-1-enyl)piperidine;1-(1-Piperidinyl)cyclohex-1-ene",
    "duplicated_cas_no": "",
    "SMILES": "C=1(CCCCC1)N2CCCCC2",
    "meta_data": {
        "InChI": "InChI=1S/C11H19N/c1-3-7-11(8-4-1)12-9-5-2-6-10-12/h7H,1-6,8-10H2",
        "InChIKey": null,
        "Canonical SMILES": "C1=C(N2CCCCC2)CCCC1",
        "Molecular Formula": "C<sub>11</sub>H<sub>19</sub>N",
        "Molecular Mass": "165.28",
        "Boiling Point": "116-118 °C"
    }
}