{
    "cas_no": "100-54-9",
    "key_name": "3-Cyanopyridine",
    "cn_name": "3-氰基吡啶;",
    "alternate_name": "3-Pyridinecarbonitrile;Nicotinonitrile;3-Cyanopyridine;Nicotinic acid nitrile;3-Pyridylcarbonitrile;3-Pyridinenitrile;3-Azabenzonitrile;3-Pyridyl cyanide;β-Cyanopyridine;NSC 17558",
    "duplicated_cas_no": "",
    "SMILES": "C(#N)C=1C=CC=NC1",
    "meta_data": {
        "InChI": "InChI=1S/C6H4N2/c7-4-6-2-1-3-8-5-6/h1-3,5H",
        "InChIKey": null,
        "Canonical SMILES": "N#CC=1C=NC=CC1",
        "Molecular Formula": "C<sub>6</sub>H<sub>4</sub>N<sub>2</sub>",
        "Molecular Mass": "104.11",
        "Boiling Point": "206.9 °C",
        "Melting Point": "51 °C",
        "Density": "1.1590 g/cm³ @ Temp: 25 °C"
    }
}