{
    "cas_no": "842-07-9",
    "key_name": "1-(Phenylazo)-2-naphthol",
    "cn_name": "苏丹-1;1-(苯基偶氮)-2-萘酚;苏丹红一号;油溶黄;溶剂黄14;",
    "alternate_name": "2-Naphthalenol, 1-(2-phenyldiazenyl)-;C.I. Solvent Yellow 14;2-Naphthalenol, 1-(phenylazo)-;Sudan Yellow;2-Naphthol, 1-phenylazo-;1-(2-Phenyldiazenyl)-2-naphthalenol;C.I. 12055;Brasilazina Oil Orange;Calcogas Orange NC;Ceres Orange R;Dispersol Yellow PP;Enial Orange I;Fast Oil Orange I;Fast Orange;Fat Orange G;Fat Orange I;Fat Orange R;Fat Orange 4A;Fat Orange RS;Grasal Orange;Grasan Orange R;Hidaco Oil Orange;Lacquer Orange VG;Oil Orange;Oil Orange E;Oil Orange R;Oil Orange Z-7078;Oil Orange 2B;Oil Orange 31;Oil Orange 2311;Oil Orange 7078-V;Oil Orange PEL;Oleal Orange R;Orange R Fat Soluble;Orange 3RA Soluble in Grease;Organol Orange;Orient Oil Orange PS;Petrol Orange Y;Plastoresin Orange F 4A;Resinol Orange R;Silotras Orange TR;Solvent Yellow 14;Somalia Orange I;Stearix Orange;Sudan 1;Sudan Orange R;Sudan Orange RA New;Tertrogras Orange SV;Toyo Oil Orange;Waxoline Yellow I;Waxoline Yellow IM;Waxoline Yellow IP;Waxoline Yellow IS;Sudan I;1-(Phenylazo)-2-naphthol;Orange Pel;1-Benzeneazo-2-naphthol;Benzeneazo-β-naphthol;1-Phenylazo-β-naphthol;Sudan Orange RA;Fat Soluble Orange;Oil Soluble Orange;2-Hydroxynaphthyl-1-azobenzene;2-Hydroxy-1-(phenylazo)naphthalene;α-Phenylazo-β-naphthol;Morton Orange Y;1-(Phenylazo)-2-hydroxynaphthalene;1-(2-Hydroxynaphthyl)azobenzene;Oil orange PS;1-Phenylazo-2-naphthalenol;Waxoline Orange EP-FW;Sudan Orange 220;C.I. Disperse Yellow 97;Disperse Yellow 97;Orange JLS-PS;NSC 11227;NSC 51524;Fat Orange R 01;Oil Orange 5101;Sudan Red I;Dispersol Fast Orange B;Oil Soluble Yellow R;Sudan Red 1",
    "duplicated_cas_no": "104407-03-6;1846566-64-0",
    "SMILES": "N(=NC1=CC=CC=C1)C=2C3=C(C=CC2O)C=CC=C3",
    "meta_data": {
        "InChI": "InChI=1S/C16H12N2O/c19-15-11-10-12-6-4-5-9-14(12)16(15)18-17-13-7-2-1-3-8-13/h1-11,19H",
        "InChIKey": null,
        "Canonical SMILES": "OC=1C=CC=2C=CC=CC2C1N=NC=3C=CC=CC3",
        "Molecular Formula": "C<sub>16</sub>H<sub>12</sub>N<sub>2</sub>O",
        "Molecular Mass": "248.28",
        "Melting Point": "134 °C",
        "Density": "1.1055 g/cm³ @ Temp: 17.2 °C"
    }
}