{
    "cas_no": "4748-78-1",
    "key_name": "4-Ethylbenzaldehyde",
    "cn_name": null,
    "alternate_name": "Benzaldehyde, 4-ethyl-;Benzaldehyde, <em>p</em>-ethyl-;4-Ethylbenzaldehyde;<em>p</em>-Ethylbenzaldehyde",
    "duplicated_cas_no": "",
    "SMILES": "C(C)C1=CC=C(C=O)C=C1",
    "meta_data": {
        "InChI": "InChI=1S/C9H10O/c1-2-8-3-5-9(7-10)6-4-8/h3-7H,2H2,1H3",
        "InChIKey": null,
        "Canonical SMILES": "O=CC1=CC=C(C=C1)CC",
        "Molecular Formula": "C<sub>9</sub>H<sub>10</sub>O",
        "Molecular Mass": "134.18",
        "Boiling Point": "221 °C @ Press: 760 Torr"
    }
}