{
    "cas_no": "705-29-3",
    "key_name": "3-(Trifluoromethyl)benzyl chloride",
    "cn_name": "1-氯甲基-3-三氟甲基苯;间三氟甲基氯苄;",
    "alternate_name": "Benzene, 1-(chloromethyl)-3-(trifluoromethyl)-;<em>m</em>-Xylene, α′-chloro-α,α,α-trifluoro-;1-(Chloromethyl)-3-(trifluoromethyl)benzene;<em>m</em>-(Trifluoromethyl)benzyl chloride;α-Chloro-3-(trifluoromethyl)toluene;3-(Trifluoromethyl)benzyl chloride;α′-Chloro-α,α,α-trifluoro-<em>m</em>-xylene;<em>m</em>-(α,α,α-Trifluoromethyl)benzyl chloride;NSC 5227",
    "duplicated_cas_no": "",
    "SMILES": "C(F)(F)(F)C1=CC(CCl)=CC=C1",
    "meta_data": {
        "InChI": "InChI=1S/C8H6ClF3/c9-5-6-2-1-3-7(4-6)8(10,11)12/h1-4H,5H2",
        "InChIKey": null,
        "Canonical SMILES": "FC(F)(F)C=1C=CC=C(C1)CCl",
        "Molecular Formula": "C<sub>8</sub>H<sub>6</sub>ClF<sub>3</sub>",
        "Molecular Mass": "194.58",
        "Boiling Point": "105-106 °C @ Press: 0.7 Torr",
        "Melting Point": "32-36 °C"
    }
}