{
    "cas_no": "56-82-6",
    "key_name": "(±)-Glyceraldehyde",
    "cn_name": "DL-甘油醛;2,3-二羟基丙醛;丙醛糖;",
    "alternate_name": "Propanal, 2,3-dihydroxy-;Glyceraldehyde, <span class=\"text-smallcaps\">DL</span>-;Propanal, 2,3-dihydroxy-, (±)-;2,3-Dihydroxypropanal;<span class=\"text-smallcaps\">DL</span>-Glyceraldehyde;<span class=\"text-smallcaps\">DL</span>-Glyceric aldehyde;(±)-Glyceraldehyde;<em>dl</em>-Glyceraldehyde;α,β-Dihydroxypropionaldehyde;Glyceric aldehyde;Glycerose;Glyceraldehyde;2,3-Dihydroxypropionaldehyde;Glycerinaldehyde;NSC 67934;MeSH ID: D005985",
    "duplicated_cas_no": "367-47-5",
    "SMILES": "C(CO)(C=O)O",
    "meta_data": {
        "InChI": "InChI=1S/C3H6O3/c4-1-3(6)2-5/h1,3,5-6H,2H2",
        "InChIKey": null,
        "Canonical SMILES": "O=CC(O)CO",
        "Molecular Formula": "C<sub>3</sub>H<sub>6</sub>O<sub>3</sub>",
        "Molecular Mass": "90.08",
        "Melting Point": "145 °C",
        "Density": "1.455 g/cm³ @ Temp: 18 °C"
    }
}