{
    "uri": "substance/pt/1332076",
    "rn": "1332-07-6",
    "name": "ZB 500",
    "images": [],
    "inchi": "",
    "inchiKey": "",
    "smile": "",
    "canonicalSmile": "",
    "molecularFormula": "Unspecified",
    "molecularMass": "",
    "experimentalProperties": [
        {
            "name": "Melting Point",
            "property": "980 °C",
            "sourceNumber": 1
        },
        {
            "name": "Density",
            "property": "3.64 g/cm³",
            "sourceNumber": 1
        }
    ],
    "propertyCitations": [
        {
            "docUri": "",
            "sourceNumber": 1,
            "source": "Hazardous Substances Data Bank data were obtained from the National Library of Medicine (US)"
        }
    ],
    "synonyms": [
        "Boric acid, zinc salt",
        "Zinc borate",
        "ZN 100",
        "ZB 237",
        "ZB 112",
        "Bonrex FC",
        "XPI 187",
        "ZB 467 Lite",
        "FRC 600",
        "Alcanex FR 100",
        "JS 9502",
        "SZB 2335",
        "Climax ZB 467",
        "Firebrake ZB 500",
        "Alcanex FRC 600",
        "ZSB 2335",
        "ZT",
        "ZT (fire retardant)",
        "Flamtard Z 10",
        "Storflam ZB 2335",
        "Alcanex FR 50",
        "FR 50",
        "ADK Stab M 2335",
        "ZB-XF",
        "Alcanex XF 100C",
        "Firebrake ZB-XF",
        "ZB 500",
        "ZB 2325",
        "HT 207",
        "SZB 500",
        "Alcanex FRF 30",
        "ZB 2300",
        "ST-FS 2300FB",
        "FR 080",
        "PSX 0060",
        "Zincborel Fine",
        "Zinflam ZB",
        "Estone ZB",
        "A 16536",
        "YT 1201",
        "SN 303 (borate)",
        "SN 303",
        "A-ZB 400",
        "ZB 503",
        "Flacavon 275",
        "ZB 03",
        "Estone ZB 03",
        "RN-BZ 25",
        "ZBS-DI 100"
    ],
    "replacedRns": [
        "37221-82-2",
        "59330-52-8",
        "2231209-84-8"
    ],
    "hasMolfile": false,
    "source": "https://commonchemistry.cas.org/detail?cas_rn=1332-07-6"
}