{
    "cas_no": "13395-36-3",
    "key_name": "Hexanoic acid, 5,5-dimethyl-2,4-dioxo-, ethyl ester",
    "cn_name": "三甲基乙酰基丙酮酸乙酯;5,5-二甲基-2,4-二氧己酸乙酯;",
    "alternate_name": "Hexanoic acid, 5,5-dimethyl-2,4-dioxo-, ethyl ester;Ethyl pivaloylpyruvate;5,5-Dimethyl-2,4-dioxohexanoic acid ethyl ester;Ethyl 2,4-dioxo-5,5-dimethylhexanoate;Ethyl 5,5-dimethyl-2,4-dioxohexanoate",
    "duplicated_cas_no": "",
    "SMILES": "C(CC(C(C)(C)C)=O)(C(OCC)=O)=O",
    "meta_data": {
        "InChI": "InChI=1S/C10H16O4/c1-5-14-9(13)7(11)6-8(12)10(2,3)4/h5-6H2,1-4H3",
        "InChIKey": null,
        "Canonical SMILES": "O=C(OCC)C(=O)CC(=O)C(C)(C)C",
        "Molecular Formula": "C<sub>10</sub>H<sub>16</sub>O<sub>4</sub>",
        "Molecular Mass": "200.23",
        "Boiling Point": "124 °C @ Press: 13 Torr"
    }
}