{
    "cas_no": "13726-84-6",
    "key_name": "5-(1,1-Dimethylethyl) hydrogen <em>N</em>-[(1,1-dimethylethoxy)carbonyl]-<span class=\"text-smallcaps\">L</span>-glutamate",
    "cn_name": "N-Boc-L-天冬氨酸-5-叔丁酯;叔丁氧羰基-L-谷氨酸-5-叔丁酯;",
    "alternate_name": "<span class=\"text-smallcaps\">L</span>-Glutamic acid, <em>N</em>-[(1,1-dimethylethoxy)carbonyl]-, 5-(1,1-dimethylethyl) ester;Glutamic acid, <em>N</em>-carboxy-, <em>N</em>,5-di-<em>tert</em>-butyl ester, <span class=\"text-smallcaps\">L</span>-;5-(1,1-Dimethylethyl) hydrogen <em>N</em>-[(1,1-dimethylethoxy)carbonyl]-<span class=\"text-smallcaps\">L</span>-glutamate;(2<em>S</em>)-5-<em>tert</em>-Butoxy-2-[(<em>tert</em>-butoxycarbonyl)amino]-5-oxopentanoic acid;<em>N</em>-<em>tert</em>-Butoxycarbonylglutamic acid γ-<em>tert</em>-butyl ester;<em>N</em>-Boc-glutaminic acid δ-(<em>tert</em>-butyl) ester;<em>N</em>-Boc-<span class=\"text-smallcaps\">L</span>-glutamic acid γ-(<em>tert</em>-butyl) ester;NSC 164048;(2S)-5-<em>tert</em>-Butoxy-2-[(<em>tert</em>-butoxycarbonyl)amino]-5-oxopentanoic acid;(<em>S</em>)-5-<em>tert</em>-Butoxy-2-(<em>tert</em>-butoxycarbonylamino)-5-oxopentanoic acid;Boc-<span class=\"text-smallcaps\">L</span>-Glu(OtBu)-OH;Boc-Glu(<em>O</em>-tBu)-<em>O</em>H",
    "duplicated_cas_no": "104125-44-2;175594-91-9;183488-65-5;211185-88-5;865374-72-7;1122490-31-6",
    "SMILES": "[C@@H](CCC(OC(C)(C)C)=O)(NC(OC(C)(C)C)=O)C(O)=O",
    "meta_data": {
        "InChI": "InChI=1S/C14H25NO6/c1-13(2,3)20-10(16)8-7-9(11(17)18)15-12(19)21-14(4,5)6/h9H,7-8H2,1-6H3,(H,15,19)(H,17,18)/t9-/m0/s1",
        "InChIKey": null,
        "Canonical SMILES": "O=C(OC(C)(C)C)NC(C(=O)O)CCC(=O)OC(C)(C)C",
        "Molecular Formula": "C<sub>14</sub>H<sub>25</sub>NO<sub>6</sub>",
        "Molecular Mass": "303.35",
        "Melting Point": "101-102 °C"
    }
}