{
    "cas_no": "79498-31-0",
    "key_name": "Glaucocalyxin A",
    "cn_name": null,
    "alternate_name": "Kaur-16-ene-3,15-dione, 7,14-dihydroxy-, (7α,14<em>R</em>)-;7<em>H</em>-2,10a-Ethanophenanthrene, kaur-16-ene-3,15-dione deriv.;(7α,14<em>R</em>)-7,14-Dihydroxykaur-16-ene-3,15-dione;Leukamenin F;Glaucocalyxin A;Wangzaozin B;Leucamenin F",
    "duplicated_cas_no": "",
    "SMILES": "OC1[C@@]23[C@]([C@@]4(C)[C@](C[C@H]2O)(C(C)(C)C(=O)CC4)[H])(CC[C@]1(C(=C)C3=O)[H])[H]",
    "meta_data": {
        "InChI": "InChI=1S/C20H28O4/c1-10-11-5-6-12-19(4)8-7-14(21)18(2,3)13(19)9-15(22)20(12,16(10)23)17(11)24/h11-13,15,17,22,24H,1,5-9H2,2-4H3/t11-,12-,13+,15+,17?,19-,20-/m0/s1",
        "InChIKey": null,
        "Canonical SMILES": "O=C1C(=C)C2CCC3C1(C(O)CC4C(C(=O)CCC34C)(C)C)C2O",
        "Molecular Formula": "C<sub>20</sub>H<sub>28</sub>O<sub>4</sub>",
        "Molecular Mass": "332.43",
        "Melting Point": "219.5-220.5 °C"
    }
}