{
    "cas_no": "7144-65-2",
    "key_name": "2-[([1,1′-Biphenyl]-2-yloxy)methyl]oxirane",
    "cn_name": "邻苯基苯酚缩水甘油醚;",
    "alternate_name": "Oxirane, 2-[([1,1′-biphenyl]-2-yloxy)methyl]-;Propane, 1-(2-biphenylyloxy)-2,3-epoxy-;Oxirane, [([1,1′-biphenyl]-2-yloxy)methyl]-;Propane, 3-[2-biphenylyloxy]-1,2-epoxy-;2-[([1,1′-Biphenyl]-2-yloxy)methyl]oxirane;2-(2,3-Epoxypropoxy)biphenyl;3-(2-Xenyloxy)propylene oxide;3-(2-Biphenylyloxy)propylene oxide;3-(2-Xenyloxy)-1,2-epoxypropane;2-Biphenylyl glycidyl ether;OPP-G;Glycidyl <em>o</em>-phenylphenol ether;<em>o</em>-Phenylphenyl glycidyl ether;3-(Biphenyl-2-oxy)-1,2-epoxypropane;NSC 52971;Glycidyl 2-phenylphenyl ether;G 0098;SY-OPG;Denacol EX 142;EX 142;2-(2-Phenylphenoxymethyl)oxirane;OPP-EP",
    "duplicated_cas_no": "1337-69-5;1137831-03-8",
    "SMILES": "O(CC1CO1)C2=C(C=CC=C2)C3=CC=CC=C3",
    "meta_data": {
        "InChI": "InChI=1S/C15H14O2/c1-2-6-12(7-3-1)14-8-4-5-9-15(14)17-11-13-10-16-13/h1-9,13H,10-11H2",
        "InChIKey": null,
        "Canonical SMILES": "O(C=1C=CC=CC1C=2C=CC=CC2)CC3OC3",
        "Molecular Formula": "C<sub>15</sub>H<sub>14</sub>O<sub>2</sub>",
        "Molecular Mass": "226.27",
        "Boiling Point": "132 °C @ Press: 0.1 Torr"
    }
}