{
    "cas_no": "15409-60-6",
    "key_name": "2-[(Dimethylamino)methyl]cyclohexanone",
    "cn_name": "2-二甲氨基甲基环己酮;",
    "alternate_name": "Cyclohexanone, 2-[(dimethylamino)methyl]-;2-[(Dimethylamino)methyl]cyclohexanone;2-(<em>N</em>,<em>N</em>-Dimethylaminomethyl)cyclohexanone;NSC 222825;2-[(Dimethylamino)methyl]cyclohexan-1-one",
    "duplicated_cas_no": "61229-39-8",
    "SMILES": "C(N(C)C)C1C(=O)CCCC1",
    "meta_data": {
        "InChI": "InChI=1S/C9H17NO/c1-10(2)7-8-5-3-4-6-9(8)11/h8H,3-7H2,1-2H3",
        "InChIKey": null,
        "Canonical SMILES": "O=C1CCCCC1CN(C)C",
        "Molecular Formula": "C<sub>9</sub>H<sub>17</sub>NO",
        "Molecular Mass": "155.24",
        "Boiling Point": "100 °C @ Press: 13 Torr",
        "Melting Point": "148-150 °C",
        "Density": "0.9504 g/cm³ @ Temp: 20 °C"
    }
}