{
    "cas_no": "542-90-5",
    "key_name": "Ethyl thiocyanate",
    "cn_name": "硫氰酸乙酯;",
    "alternate_name": "Thiocyanic acid, ethyl ester;Ethyl sulfocyanate;Ethyl thiocyanate;NSC 8827",
    "duplicated_cas_no": "",
    "SMILES": "S(CC)C#N",
    "meta_data": {
        "InChI": "InChI=1S/C3H5NS/c1-2-5-3-4/h2H2,1H3",
        "InChIKey": null,
        "Canonical SMILES": "N#CSCC",
        "Molecular Formula": "C<sub>3</sub>H<sub>5</sub>NS",
        "Molecular Mass": "87.14",
        "Boiling Point": "146 °C",
        "Melting Point": "-85.5 °C",
        "Density": "1.0071 g/cm³ @ Temp: 23 °C"
    }
}