{
    "cas_no": "7728-40-7",
    "key_name": "Monoethylglycinexylidide",
    "cn_name": null,
    "alternate_name": "Acetamide, <em>N</em>-(2,6-dimethylphenyl)-2-(ethylamino)-;2′,6′-Acetoxylidide, 2-(ethylamino)-;<em>N</em>-(2,6-Dimethylphenyl)-2-(ethylamino)acetamide;L 86;<em>N</em>-Ethylglycinexylidide;Monoethylglycinexylidide;2-(Ethylamino)-2′,6′-acetoxylidide;ω-Ethylamino-2′,6′-dimethylacetanilide;Monoethylglycylxylidide;Norlidocaine;MEGX;<em>N</em>-(<em>N</em>-Ethylglycyl)-2,6-xylidine",
    "duplicated_cas_no": "126912-02-5",
    "SMILES": "N(C(CNCC)=O)C1=C(C)C=CC=C1C",
    "meta_data": {
        "InChI": "InChI=1S/C12H18N2O/c1-4-13-8-11(15)14-12-9(2)6-5-7-10(12)3/h5-7,13H,4,8H2,1-3H3,(H,14,15)",
        "InChIKey": null,
        "Canonical SMILES": "O=C(NC=1C(=CC=CC1C)C)CNCC",
        "Molecular Formula": "C<sub>12</sub>H<sub>18</sub>N<sub>2</sub>O",
        "Molecular Mass": "206.28",
        "Boiling Point": "164-165 °C @ Press: 1.3 Torr",
        "Melting Point": "47-49 °C"
    }
}