{
    "cas_no": "83647-43-2",
    "key_name": "3-Bromo-2-methylbenzenemethanol",
    "cn_name": null,
    "alternate_name": "Benzenemethanol, 3-bromo-2-methyl-;3-Bromo-2-methylbenzenemethanol;3-Bromo-2-methylbenzyl alcohol;(3-Bromo-2-methylphenyl)methanol",
    "duplicated_cas_no": "",
    "SMILES": "C(O)C1=C(C)C(Br)=CC=C1",
    "meta_data": {
        "InChI": "InChI=1S/C8H9BrO/c1-6-7(5-10)3-2-4-8(6)9/h2-4,10H,5H2,1H3",
        "InChIKey": null,
        "Canonical SMILES": "BrC1=CC=CC(=C1C)CO",
        "Molecular Formula": "C<sub>8</sub>H<sub>9</sub>BrO",
        "Molecular Mass": "201.06",
        "Melting Point": "103-104 °C"
    }
}