{
    "cas_no": "3307-39-9",
    "key_name": "2-(4-Chlorophenoxy)propionic acid",
    "cn_name": "2-(4-氯苯氧基)丙酸;2-(4-氯苯氧基)丙酸;",
    "alternate_name": "Propanoic acid, 2-(4-chlorophenoxy)-;Propionic acid, 2-(<em>p</em>-chlorophenoxy)-;2-(4-Chlorophenoxy)propanoic acid;4-CPP;2-(4-CPP);α-(4-Chlorophenoxy)propionic acid;2-(4-Chlorophenoxy)propionic acid;2-(<em>p</em>-Chlorophenoxy)propionic acid;CPP;(±)-2-(4-Chlorophenoxy)propionic acid;<span class=\"text-smallcaps\">DL</span>-2-(4-Chlorophenoxy)propionic acid;(±)-2-(<em>p</em>-Chlorophenoxy)propionic acid;NSC 70174;(<em>RS</em>)-2-(4-Chlorophenoxy)propionic acid",
    "duplicated_cas_no": "20421-33-4",
    "SMILES": "O(C(C(O)=O)C)C1=CC=C(Cl)C=C1",
    "meta_data": {
        "InChI": "InChI=1S/C9H9ClO3/c1-6(9(11)12)13-8-4-2-7(10)3-5-8/h2-6H,1H3,(H,11,12)",
        "InChIKey": null,
        "Canonical SMILES": "O=C(O)C(OC1=CC=C(Cl)C=C1)C",
        "Molecular Formula": "C<sub>9</sub>H<sub>9</sub>ClO<sub>3</sub>",
        "Molecular Mass": "200.62",
        "Melting Point": "66 °C"
    }
}