{
    "cas_no": "13513-82-1",
    "key_name": "2-Methoxy-α-methylbenzenemethanol",
    "cn_name": null,
    "alternate_name": "Benzenemethanol, 2-methoxy-α-methyl-;Benzyl alcohol, <em>o</em>-methoxy-α-methyl-;2-Methoxy-α-methylbenzenemethanol;α-Methyl-<em>o</em>-methoxybenzyl alcohol;α-(2-Methoxyphenyl)ethanol;(±)-2-Methoxy-α-methylbenzyl alcohol;(±)-1-(2-Methoxyphenyl)ethanol;1-(2-Methoxyphenyl)ethanol;<em>o</em>-Methoxy-α-methylbenzyl alcohol;2-Methoxy-α-methylbenzyl alcohol;1-(<em>o</em>-Methoxyphenyl)ethanol;1-(2-Methoxyphenyl)ethan-1-ol",
    "duplicated_cas_no": "111059-03-1",
    "SMILES": "O(C)C1=C(C(C)O)C=CC=C1",
    "meta_data": {
        "InChI": "InChI=1S/C9H12O2/c1-7(10)8-5-3-4-6-9(8)11-2/h3-7,10H,1-2H3",
        "InChIKey": null,
        "Canonical SMILES": "OC(C=1C=CC=CC1OC)C",
        "Molecular Formula": "C<sub>9</sub>H<sub>12</sub>O<sub>2</sub>",
        "Molecular Mass": "152.19",
        "Boiling Point": "125 °C",
        "Melting Point": "-85.1 °C",
        "Density": "1.0780 g/cm³ @ Temp: 25 °C"
    }
}