{
    "cas_no": "119-90-4",
    "key_name": "Dianisidine",
    "cn_name": "3,3\"-二甲氧基联苯胺;",
    "alternate_name": "[1,1′-Biphenyl]-4,4′-diamine, 3,3′-dimethoxy-;Fast Blue B Base;Benzidine, 3,3′-dimethoxy-;3,3′-Dimethoxy[1,1′-biphenyl]-4,4′-diamine;Amacel Developed Navy SD;Azogene Fast Blue B;Blue Base Irga B;Blue Base NB;Blue BN Base;Cellitazol B;Cibacete Diazo Navy Blue 2B;C.I. Disperse Black 6;Diacel Navy DC;<em>o</em>-Dianisidine;3,3′-Dimethoxybenzidine;Fast Blue Base B;Fast Blue DSC Base;Hiltonil Fast Blue B Base;Kayaku Blue B Base;Lake Blue B Base;Mitsui Blue B Base;Naphthanil Blue B Base;Setacyl Diazo Navy R;4,4′-Bi-<em>o</em>-anisidine;3,3′-Dimethoxy-4,4′-diaminodiphenyl;Dianisidine;4,4′-Diamino-3,3′-dimethoxy-1,1′-biphenyl;3,3′-Dimethoxybenzidene;NSC 3168;3,3′-Dimethoxy-4,4′-diaminobiphenyl;3,3′-Dimethoxy-biphenyl-4,4′-diamine",
    "duplicated_cas_no": "59777-10-5",
    "SMILES": "O(C)C=1C=C(C=CC1N)C2=CC(OC)=C(N)C=C2",
    "meta_data": {
        "InChI": "InChI=1S/C14H16N2O2/c1-17-13-7-9(3-5-11(13)15)10-4-6-12(16)14(8-10)18-2/h3-8H,15-16H2,1-2H3",
        "InChIKey": null,
        "Canonical SMILES": "O(C=1C=C(C=CC1N)C2=CC=C(N)C(OC)=C2)C",
        "Molecular Formula": "C<sub>14</sub>H<sub>16</sub>N<sub>2</sub>O<sub>2</sub>",
        "Molecular Mass": "244.29",
        "Boiling Point": "356 °C",
        "Melting Point": "137 °C"
    }
}