{
    "cas_no": "5629-98-1",
    "key_name": "2,4-Dibromobenzaldehyde",
    "cn_name": null,
    "alternate_name": "Benzaldehyde, 2,4-dibromo-;2,4-Dibromobenzaldehyde",
    "duplicated_cas_no": "",
    "SMILES": "C(=O)C1=C(Br)C=C(Br)C=C1",
    "meta_data": {
        "InChI": "InChI=1S/C7H4Br2O/c8-6-2-1-5(4-10)7(9)3-6/h1-4H",
        "InChIKey": null,
        "Canonical SMILES": "O=CC1=CC=C(Br)C=C1Br",
        "Molecular Formula": "C<sub>7</sub>H<sub>4</sub>Br<sub>2</sub>O",
        "Molecular Mass": "263.91",
        "Melting Point": "80 °C"
    }
}