{
    "cas_no": "2432-63-5",
    "key_name": "1,4-Dipropyl (2<em>Z</em>)-2-butenedioate",
    "cn_name": "马来酸二正丙酯;马来酸二正丙酯;",
    "alternate_name": "2-Butenedioic acid (2<em>Z</em>)-, 1,4-dipropyl ester;Maleic acid, dipropyl ester;2-Butenedioic acid (<em>Z</em>)-, dipropyl ester;2-Butenedioic acid (2<em>Z</em>)-, dipropyl ester;1,4-Dipropyl (2<em>Z</em>)-2-butenedioate;Dipropyl maleate;Di-<em>n</em>-propyl maleate",
    "duplicated_cas_no": "",
    "SMILES": "C(/C=C\\C(OCCC)=O)(OCCC)=O",
    "meta_data": {
        "InChI": "InChI=1S/C10H16O4/c1-3-7-13-9(11)5-6-10(12)14-8-4-2/h5-6H,3-4,7-8H2,1-2H3/b6-5-",
        "InChIKey": null,
        "Canonical SMILES": "O=C(OCCC)C=CC(=O)OCCC",
        "Molecular Formula": "C<sub>10</sub>H<sub>16</sub>O<sub>4</sub>",
        "Molecular Mass": "200.23",
        "Boiling Point": "71 °C @ Press: 0.25 Torr",
        "Density": "1.0271 g/cm³ @ Temp: 16.0 °C"
    }
}