{
    "cas_no": "21943-15-7",
    "key_name": "3,5-Dibromo-2(1<em>H</em>)-pyrazinone",
    "cn_name": "3,5-二溴-2-羟基吡嗪;",
    "alternate_name": "2(1<em>H</em>)-Pyrazinone, 3,5-dibromo-;Pyrazinol, 3,5-dibromo-;3,5-Dibromo-2(1<em>H</em>)-pyrazinone;3,5-Dibromopyrazin-2-ol;3,5-Dibromo-1<em>H</em>-pyrazin-2-one;3,5-Dibromo-2-hydroxypyrazine;3,5-Dibromo-1,2-dihydropyrazin-2-one",
    "duplicated_cas_no": "",
    "SMILES": "BrC=1C(=O)NC=C(Br)N1",
    "meta_data": {
        "InChI": "InChI=1S/C4H2Br2N2O/c5-2-1-7-4(9)3(6)8-2/h1H,(H,7,9)",
        "InChIKey": null,
        "Canonical SMILES": "O=C1NC=C(Br)N=C1Br",
        "Molecular Formula": "C<sub>4</sub>H<sub>2</sub>Br<sub>2</sub>N<sub>2</sub>O",
        "Molecular Mass": "253.88",
        "Melting Point": "182-184 °C"
    }
}