{
    "cas_no": "12031-83-3",
    "key_name": "Zirconate (ZrO<sub>3</sub><sup>2-</sup>), lithium (1:2)",
    "cn_name": "锆酸锂;氧化锆锂;",
    "alternate_name": "Zirconate (ZrO<sub>3</sub><sup>2-</sup>), lithium (1:2);Lithium zirconium oxide (Li<sub>2</sub>ZrO<sub>3</sub>);Zirconate (ZrO<sub>3</sub><sup>2-</sup>), dilithium;Lithium zirconate(IV) (Li<sub>2</sub>ZrO<sub>3</sub>);Zirconium lithium oxide (Li<sub>2</sub>ZrO<sub>3</sub>);Lithium zirconate (Li<sub>2</sub>ZrO<sub>3</sub>);Dilithium zirconium trioxide",
    "duplicated_cas_no": "79787-66-9;1433119-07-3;1436428-31-7;2695576-95-3;3023557-18-5",
    "SMILES": "[Zr-2](=O)(=O)=O.[Li+]",
    "meta_data": {
        "InChI": "InChI=1S/2Li.3O.Zr/q2*+1;;;;-2",
        "InChIKey": null,
        "Canonical SMILES": "[Li+].O=[Zr-2](=O)=O",
        "Molecular Formula": "Li.<sup>1</sup>/<sub>2</sub>O<sub>3</sub>Zr",
        "Molecular Mass": "",
        "Melting Point": "720 °C",
        "Density": "4.15 g/cm³"
    }
}