{
    "cas_no": "4208-57-5",
    "key_name": "2-Butyrylfuran",
    "cn_name": "2-丁酰呋喃;",
    "alternate_name": "1-Butanone, 1-(2-furanyl)-;1-Butanone, 1-(2-furyl)-;1-(2-Furanyl)-1-butanone;Furyl <em>n</em>-propyl ketone;2-Butyrylfuran;2-Furyl propyl ketone;NSC 21612;1-(2-Furyl)-1-butanone",
    "duplicated_cas_no": "",
    "SMILES": "C(CCC)(=O)C1=CC=CO1",
    "meta_data": {
        "InChI": "InChI=1S/C8H10O2/c1-2-4-7(9)8-5-3-6-10-8/h3,5-6H,2,4H2,1H3",
        "InChIKey": null,
        "Canonical SMILES": "O=C(C=1OC=CC1)CCC",
        "Molecular Formula": "C<sub>8</sub>H<sub>10</sub>O<sub>2</sub>",
        "Molecular Mass": "138.16",
        "Boiling Point": "192 °C",
        "Melting Point": "10-12 °C",
        "Density": "1.0485 g/cm³ @ Temp: 20 °C"
    }
}