{
    "cas_no": "68-96-2",
    "key_name": "17-Hydroxyprogesterone",
    "cn_name": "羟孕酮;",
    "alternate_name": "Pregn-4-ene-3,20-dione, 17-hydroxy-;17-Hydroxypregn-4-ene-3,20-dione;17-Hydroxyprogesterone;Prodox;17α-Hydroxypregn-4-ene-3,20-dione;Hydroxyprogesterone;Δ<sup>4</sup>-Pregnen-17α-ol-3,20-dione;Gestageno Gador;Prodix;Pregn-4-en-17α-ol-3,20-dione;17α-Hydroxyprogesterone;U 3096;Gestageno;NSC 15468;17α-Hydroxylutin;17α-Hydroxy-P4;4-Pregnene-17α-ol-3,20-dione",
    "duplicated_cas_no": "67085-08-9;1050677-68-3;2602564-72-5",
    "SMILES": "C[C@@]12[C@]([C@]3([C@@]([C@]4(C)C(CC3)=CC(=O)CC4)(CC1)[H])[H])(CC[C@@]2(C(C)=O)O)[H]",
    "meta_data": {
        "InChI": "InChI=1S/C21H30O3/c1-13(22)21(24)11-8-18-16-5-4-14-12-15(23)6-9-19(14,2)17(16)7-10-20(18,21)3/h12,16-18,24H,4-11H2,1-3H3/t16-,17+,18+,19+,20+,21+/m1/s1",
        "InChIKey": null,
        "Canonical SMILES": "O=C1C=C2CCC3C(CCC4(C)C3CCC4(O)C(=O)C)C2(C)CC1",
        "Molecular Formula": "C<sub>21</sub>H<sub>30</sub>O<sub>3</sub>",
        "Molecular Mass": "330.46",
        "Melting Point": "222-223 °C"
    }
}