{
    "cas_no": "7769-79-1",
    "key_name": "2-Aminohexadecanoic acid",
    "cn_name": "2-氨基十六烷酸;",
    "alternate_name": "Hexadecanoic acid, 2-amino-;2-Aminohexadecanoic acid;α-Aminopalmitic acid;2-Azaniumylhexadecanoate",
    "duplicated_cas_no": "98320-69-5",
    "SMILES": "C(CCCCCCCCCCCC)CC(C(O)=O)N",
    "meta_data": {
        "InChI": "InChI=1S/C16H33NO2/c1-2-3-4-5-6-7-8-9-10-11-12-13-14-15(17)16(18)19/h15H,2-14,17H2,1H3,(H,18,19)",
        "InChIKey": null,
        "Canonical SMILES": "O=C(O)C(N)CCCCCCCCCCCCCC",
        "Molecular Formula": "C<sub>16</sub>H<sub>33</sub>NO<sub>2</sub>",
        "Molecular Mass": "271.44",
        "Melting Point": "220-225 °C"
    }
}