{
    "cas_no": "3886-70-2",
    "key_name": "(+)-1-(1-Naphthyl)ethylamine",
    "cn_name": "(R)-1-(1-萘基)乙胺;alpha-萘乙胺;",
    "alternate_name": "1-Naphthalenemethanamine, α-methyl-, (α<em>R</em>)-;1-Naphthalenemethylamine, α-methyl-, (<em>R</em>)-(+)-;1-Naphthalenemethanamine, α-methyl-, (<em>R</em>)-;(α<em>R</em>)-α-Methyl-1-naphthalenemethanamine;(+)-α-(1-Naphthyl)ethylamine;<em>d</em>-1-(1-Naphthyl)ethylamine;(<em>R</em>)-(+)-α-(1-Naphthyl)ethylamine;(+)-1-(1-Naphthyl)ethylamine;(+)-1-(α-Naphthyl)ethylamine;(<em>R</em>)-α-(1-Naphthyl)ethylamine;(<em>R</em>)-1-(1-Naphthyl)ethylamine;(<em>R</em>)-1-(α-Naphthyl)ethylamine;(<em>R</em>)-(+)-1-(1-Naphthyl)ethylamine;(<em>R</em>)-(+)-1-(α-Naphthyl)ethylamine;(<em>R</em>)-1-(1-Naphthyl)ethanamine;(<em>R</em>)-1-Naphthylethylamine;(<em>R</em>)-α-Methyl-1-naphthalenemethanamine;(R)-(+)-1-(1-Naphthyl)ethylamine;[(<em>R</em>)-1-(Naphthalen-1-yl)ethyl]amine;(1<em>R</em>)-1-(1-Naphthyl)ethanamine;(<em>R</em>)-1-(Naphthalen-1-yl)ethanamine;(+)-[(<em>R</em>)-1-(Naphthalen-1-yl)ethyl]amine;(R)-1-(1-Naphthalenyl)ethylamine;(R)-1-(Naphthalen-1-yl)ethan-1-amine;(1R)-1-(Naphthalen-1-yl)ethan-1-amine;(1R)-1-Naphthalen-1-ylethanamine",
    "duplicated_cas_no": "",
    "SMILES": "[C@H](C)(N)C=1C2=C(C=CC1)C=CC=C2",
    "meta_data": {
        "InChI": "InChI=1S/C12H13N/c1-9(13)11-8-4-6-10-5-2-3-7-12(10)11/h2-9H,13H2,1H3/t9-/m1/s1",
        "InChIKey": null,
        "Canonical SMILES": "NC(C1=CC=CC=2C=CC=CC21)C",
        "Molecular Formula": "C<sub>12</sub>H<sub>13</sub>N",
        "Molecular Mass": "171.24",
        "Boiling Point": "110-115 °C @ Press: 0.1 Torr",
        "Melting Point": "135-136 °C"
    }
}