{
    "cas_no": "60125-24-8",
    "key_name": "<em>trans</em>-2-Methoxycinnamaldehyde",
    "cn_name": null,
    "alternate_name": "2-Propenal, 3-(2-methoxyphenyl)-, (2<em>E</em>)-;2-Propenal, 3-(2-methoxyphenyl)-, (<em>E</em>)-;(2<em>E</em>)-3-(2-Methoxyphenyl)-2-propenal;(<em>E</em>)-2-Methoxycinnamaldehyde;<em>trans</em>-2-Methoxycinnamaldehyde;<em>trans</em>-<em>o</em>-Methoxycinnamaldehyde;(<em>E</em>)-3-(2-Methoxyphenyl)-2-propenal;(<em>E</em>)-3-(2-Methoxyphenyl)acrylaldehyde;(E)-3-(2-Methoxyphenyl)propenal;(E)-2-Methoxycinnamaldehyde;(E)-3-(2-Methoxyphenyl)acrylaldehyde;(E)-3-(2-Methoxyphenyl)acrolein;(E)-3-(2-Methoxyphenyl)-2-propenal",
    "duplicated_cas_no": "",
    "SMILES": "C(=C/C=O)\\C1=C(OC)C=CC=C1",
    "meta_data": {
        "InChI": "InChI=1S/C10H10O2/c1-12-10-7-3-2-5-9(10)6-4-8-11/h2-8H,1H3/b6-4+",
        "InChIKey": null,
        "Canonical SMILES": "O=CC=CC=1C=CC=CC1OC",
        "Molecular Formula": "C<sub>10</sub>H<sub>10</sub>O<sub>2</sub>",
        "Molecular Mass": "162.19",
        "Melting Point": "146-147 °C"
    }
}