{
    "cas_no": "21725-69-9",
    "key_name": "1,2-Benzisoxazol-3(2<em>H</em>)-one",
    "cn_name": "苯并[d]异恶唑呤-3-ol;",
    "alternate_name": "1,2-Benzisoxazol-3(2<em>H</em>)-one;1,2-Benzisoxazol-3-ol;1,2-Benzisoxazolin-3-one;3-Hydroxybenzisoxazole;Benzo[<em>d</em>]isoxazol-3-one;3-Hydroxy-1,2-benzisoxazole;Benzo[<em>d</em>]isoxazol-3-ol;NSC 683715;1,2-Benzisoxazoline-3-one;1,2-Benzoxazol-3-one;2,3-Dihydro-1,2-benzoxazol-3-one;1,2-Benzoxazol-3-ol",
    "duplicated_cas_no": "35651-74-2",
    "SMILES": "O=C1C=2C(=CC=CC2)ON1",
    "meta_data": {
        "InChI": "InChI=1S/C7H5NO2/c9-7-5-3-1-2-4-6(5)10-8-7/h1-4H,(H,8,9)",
        "InChIKey": null,
        "Canonical SMILES": "O=C1NOC=2C=CC=CC21",
        "Molecular Formula": "C<sub>7</sub>H<sub>5</sub>NO<sub>2</sub>",
        "Molecular Mass": "135.12",
        "Melting Point": "145-146 °C"
    }
}