{
    "cas_no": "3483-82-7",
    "key_name": "<em>N</em>-Benzoyl-<span class=\"text-smallcaps\">L</span>-tyrosine ethyl ester",
    "cn_name": "N-苯甲酰-L-酪氨酸乙酯;",
    "alternate_name": "<span class=\"text-smallcaps\">L</span>-Tyrosine, <em>N</em>-benzoyl-, ethyl ester;Tyrosine, <em>N</em>-benzoyl-, ethyl ester, <span class=\"text-smallcaps\">L</span>-;<em>N</em>-Benzoyl-<span class=\"text-smallcaps\">L</span>-tyrosine ethyl ester;Ethyl <em>N</em>-benzoyl-<span class=\"text-smallcaps\">L</span>-tyrosinate;Ethyl benzoyltyrosinate;Benzoyltyrosine ethyl ester;<em>N</em>-Benzoyltyrosine ethyl ester;NSC 75895;Ethyl <em>N</em>-benzoyl-<span class=\"text-smallcaps\">L</span>-tyrosine",
    "duplicated_cas_no": "",
    "SMILES": "[C@@H](CC1=CC=C(O)C=C1)(NC(=O)C2=CC=CC=C2)C(OCC)=O",
    "meta_data": {
        "InChI": "InChI=1S/C18H19NO4/c1-2-23-18(22)16(12-13-8-10-15(20)11-9-13)19-17(21)14-6-4-3-5-7-14/h3-11,16,20H,2,12H2,1H3,(H,19,21)/t16-/m0/s1",
        "InChIKey": null,
        "Canonical SMILES": "O=C(OCC)C(NC(=O)C=1C=CC=CC1)CC2=CC=C(O)C=C2",
        "Molecular Formula": "C<sub>18</sub>H<sub>19</sub>NO<sub>4</sub>",
        "Molecular Mass": "313.35",
        "Melting Point": "122-123 °C"
    }
}