{
    "cas_no": "32873-56-6",
    "key_name": "2-Acetylamino-5-mercapto-1,3,4-thiadiazole",
    "cn_name": "2-乙酰氨基-5-巯基-1,3,4-噻二唑;",
    "alternate_name": "Acetamide, <em>N</em>-(4,5-dihydro-5-thioxo-1,3,4-thiadiazol-2-yl)-;Acetamide, <em>N</em>-(5-mercapto-1,3,4-thiadiazol-2-yl)-;1,3,4-Thiadiazole-2-thiol, 5-acetamido-;<em>N</em>-(4,5-Dihydro-5-thioxo-1,3,4-thiadiazol-2-yl)acetamide;2-Acetamido-5-mercapto-1,3,4-thiadiazole;5-Acetylamino-1,3,4-thiadiazoline-2-thione;2-Acetylamino-5-mercapto-1,3,4-thiadiazole;2-(Acetylamino)-1,3,4-thiadiazol-5-mercaptan;NSC 97893",
    "duplicated_cas_no": "",
    "SMILES": "N(C(C)=O)C=1SC(=S)NN1",
    "meta_data": {
        "InChI": "InChI=1S/C4H5N3OS2/c1-2(8)5-3-6-7-4(9)10-3/h1H3,(H,7,9)(H,5,6,8)",
        "InChIKey": null,
        "Canonical SMILES": "O=C(NC1=NNC(=S)S1)C",
        "Molecular Formula": "C<sub>4</sub>H<sub>5</sub>N<sub>3</sub>OS<sub>2</sub>",
        "Molecular Mass": "175.23",
        "Melting Point": "208-210 °C (decomp)"
    }
}