{
    "cas_no": "63333-35-7",
    "key_name": "Bromethalin",
    "cn_name": null,
    "alternate_name": "Benzenamine, <em>N</em>-methyl-2,4-dinitro-<em>N</em>-(2,4,6-tribromophenyl)-6-(trifluoromethyl)-;<em>N</em>-Methyl-2,4-dinitro-<em>N</em>-(2,4,6-tribromophenyl)-6-(trifluoromethyl)benzenamine;EL 614;Bromethalin;Rampage;Rampage (rodenticide)",
    "duplicated_cas_no": "",
    "SMILES": "N(C)(C1=C(C(F)(F)F)C=C(N(=O)=O)C=C1N(=O)=O)C2=C(Br)C=C(Br)C=C2Br",
    "meta_data": {
        "InChI": "InChI=1S/C14H7Br3F3N3O4/c1-21(13-9(16)2-6(15)3-10(13)17)12-8(14(18,19)20)4-7(22(24)25)5-11(12)23(26)27/h2-5H,1H3",
        "InChIKey": null,
        "Canonical SMILES": "O=N(=O)C=1C=C(C(=C(C1)C(F)(F)F)N(C=2C(Br)=CC(Br)=CC2Br)C)N(=O)=O",
        "Molecular Formula": "C<sub>14</sub>H<sub>7</sub>Br<sub>3</sub>F<sub>3</sub>N<sub>3</sub>O<sub>4</sub>",
        "Molecular Mass": "577.93",
        "Melting Point": "150-151 °C"
    }
}