{
    "cas_no": "53643-48-4",
    "key_name": "Vindesine",
    "cn_name": "长春地辛;长春碱酰胺；长春花碱酰胺；去乙酰长春花碱酰胺；闻得星；癌的散；西艾克;",
    "alternate_name": "Vincaleukoblastine, 3-(aminocarbonyl)-<em>O</em><sup>4</sup>-deacetyl-3-de(methoxycarbonyl)-;1<em>H</em>-Indolizino[8,1-<em>cd</em>]carbazole, vincaleukoblastine deriv.;2<em>H</em>-3,7-Methanoazacycloundecino[5,4-<em>b</em>]indole, vincaleukoblastine deriv.;3-(Aminocarbonyl)-<em>O</em><sup>4</sup>-deacetyl-3-de(methoxycarbonyl)vincaleukoblastine;Vindesine;Compound 112531;MeSH ID: D014751",
    "duplicated_cas_no": "2743427-19-0",
    "SMILES": "C(C)[C@@]12[C@]3([C@]4(C=5C(N(C)[C@]4([C@](C(N)=O)(O)[C@@H]1O)[H])=CC(OC)=C(C5)[C@]6(C(OC)=O)C7=C(C=8C(N7)=CC=CC8)CC[N@]9C[C@@](C6)(C[C@](CC)(O)C9)[H])CCN3CC=C2)[H]",
    "meta_data": {
        "InChI": "InChI=1S/C43H55N5O7/c1-6-39(52)21-25-22-42(38(51)55-5,33-27(13-17-47(23-25)24-39)26-11-8-9-12-30(26)45-33)29-19-28-31(20-32(29)54-4)46(3)35-41(28)15-18-48-16-10-14-40(7-2,34(41)48)36(49)43(35,53)37(44)50/h8-12,14,19-20,25,34-36,45,49,52-53H,6-7,13,15-18,21-24H2,1-5H3,(H2,44,50)/t25-,34+,35-,36-,39+,40-,41-,42+,43+/m1/s1",
        "InChIKey": null,
        "Canonical SMILES": "O=C(OC)C1(C=2C=C3C(=CC2OC)N(C)C4C(O)(C(=O)N)C(O)C5(C=CCN6CCC34C65)CC)C=7NC=8C=CC=CC8C7CCN9CC(CC(O)(C9)CC)C1",
        "Molecular Formula": "C<sub>43</sub>H<sub>55</sub>N<sub>5</sub>O<sub>7</sub>",
        "Molecular Mass": "753.93",
        "Melting Point": "230-232 °C"
    }
}