{
    "cas_no": "13451-05-3",
    "key_name": "Strontium tungsten oxide (SrWO<sub>4</sub>)",
    "cn_name": "钨酸锶;氧化钨锶;",
    "alternate_name": "Strontium tungsten oxide (SrWO<sub>4</sub>);Tungstic acid (H<sub>2</sub>WO<sub>4</sub>), strontium salt (1:1);Strontium tungstate (SrWO<sub>4</sub>);Tungstate (WO<sub>4</sub><sup>2-</sup>), strontium (1:1), (<em>T</em>-4)-;Strontium tungstate",
    "duplicated_cas_no": "210909-25-4;2095253-80-6;2703860-33-5",
    "SMILES": "[W-2](=O)(=O)(=O)=O.[Sr+2]",
    "meta_data": {
        "InChI": "InChI=1S/4O.Sr.W/q;;;;+2;-2",
        "InChIKey": null,
        "Canonical SMILES": "[Sr+2].O=[W-2](=O)(=O)=O",
        "Molecular Formula": "O<sub>4</sub>W.Sr",
        "Molecular Mass": "",
        "Melting Point": "1490 °C",
        "Density": "6.439 g/cm³ @ Temp: 22 °C"
    }
}