{
    "cas_no": "685-88-1",
    "key_name": "Propanedioic acid, 2-fluoro-, 1,3-diethyl ester",
    "cn_name": "2-氟丙二酸二乙酯;2-氟代丙二酸二乙酯;",
    "alternate_name": "Propanedioic acid, 2-fluoro-, 1,3-diethyl ester;Malonic acid, fluoro-, diethyl ester;Propanedioic acid, fluoro-, diethyl ester;Diethyl fluoromalonate;Ethyl fluoromalonate;Diethyl 2-fluoromalonate;Fluoropropanedioic acid diethyl ester;NSC 521723;Fluoromalonic acid diethyl ester;2-Fluoromalonic acid diethyl ester;1,3-Diethyl 2-fluoropropanedioate",
    "duplicated_cas_no": "",
    "SMILES": "C(C(OCC)=O)(C(OCC)=O)F",
    "meta_data": {
        "InChI": "InChI=1S/C7H11FO4/c1-3-11-6(9)5(8)7(10)12-4-2/h5H,3-4H2,1-2H3",
        "InChIKey": null,
        "Canonical SMILES": "O=C(OCC)C(F)C(=O)OCC",
        "Molecular Formula": "C<sub>7</sub>H<sub>11</sub>FO<sub>4</sub>",
        "Molecular Mass": "178.16",
        "Boiling Point": "121-123 °C @ Press: 30 Torr",
        "Density": "1.1475 g/cm³ @ Temp: 20 °C"
    }
}