{
    "cas_no": "23582-02-7",
    "key_name": "Triphos",
    "cn_name": "双(2-二苯磷乙基)苯磷;",
    "alternate_name": "Phosphine, bis[2-(diphenylphosphino)ethyl]phenyl-;Phosphine, [(phenylphosphinidene)diethylene]bis[diphenyl-;Bis[2-(diphenylphosphino)ethyl]phenylphosphine;Triphos;Phenylbis(diphenylphosphinoethyl)phosphine;NSC 164873;NSC 635021;((Phenylphosphinediyl)bis(ethane-2,1-diyl))bis(diphenylphosphine)",
    "duplicated_cas_no": "",
    "SMILES": "P(CCP(CCP(C1=CC=CC=C1)C2=CC=CC=C2)C3=CC=CC=C3)(C4=CC=CC=C4)C5=CC=CC=C5",
    "meta_data": {
        "InChI": "InChI=1S/C34H33P3/c1-6-16-30(17-7-1)35(26-28-36(31-18-8-2-9-19-31)32-20-10-3-11-21-32)27-29-37(33-22-12-4-13-23-33)34-24-14-5-15-25-34/h1-25H,26-29H2",
        "InChIKey": null,
        "Canonical SMILES": "C=1C=CC(=CC1)P(C=2C=CC=CC2)CCP(C=3C=CC=CC3)CCP(C=4C=CC=CC4)C=5C=CC=CC5",
        "Molecular Formula": "C<sub>34</sub>H<sub>33</sub>P<sub>3</sub>",
        "Molecular Mass": "534.55",
        "Melting Point": "131-132 °C"
    }
}