{
    "cas_no": "10486-61-0",
    "key_name": "3-Iodothiophene",
    "cn_name": "3-碘噻吩;",
    "alternate_name": "Thiophene, 3-iodo-;3-Iodothiophene;3-Thienyl iodide",
    "duplicated_cas_no": "",
    "SMILES": "IC=1C=CSC1",
    "meta_data": {
        "InChI": "InChI=1S/C4H3IS/c5-4-1-2-6-3-4/h1-3H",
        "InChIKey": null,
        "Canonical SMILES": "IC1=CSC=C1",
        "Molecular Formula": "C<sub>4</sub>H<sub>3</sub>IS",
        "Molecular Mass": "210.04",
        "Boiling Point": "77 °C @ Press: 11 Torr",
        "Melting Point": "-13.4 °C"
    }
}