{
    "cas_no": "104-79-0",
    "key_name": "<em>N</em>,<em>N</em>-Diethyl-<em>N</em>′-methylethylenediamine",
    "cn_name": "N,N-二乙基-N-甲基乙二胺;",
    "alternate_name": "1,2-Ethanediamine, <em>N</em><sup>1</sup>,<em>N</em><sup>1</sup>-diethyl-<em>N</em><sup>2</sup>-methyl-;Ethylenediamine, <em>N</em>,<em>N</em>-diethyl-<em>N</em>′-methyl-;1,2-Ethanediamine, <em>N</em>,<em>N</em>-diethyl-<em>N</em>′-methyl-;<em>N</em><sup>1</sup>,<em>N</em><sup>1</sup>-Diethyl-<em>N</em><sup>2</sup>-methyl-1,2-ethanediamine;<em>N</em>,<em>N</em>-Diethyl-<em>N</em>′-methylethylenediamine;2-(Diethylamino)-<em>N</em>-methylethylamine;[2-(Diethylamino)ethyl]methylamine;<em>N</em>,<em>N</em>-Diethyl-<em>N</em>′-methyl-1,2-ethanediamine;Methyl(2-(diethylamino)ethyl)amine;NSC 27480;<em>N</em>-[2-(Diethylamino)ethyl]-<em>N</em>-methylamine;Diethyl(2-methylaminoethyl)amine",
    "duplicated_cas_no": "",
    "SMILES": "N(CCNC)(CC)CC",
    "meta_data": {
        "InChI": "InChI=1S/C7H18N2/c1-4-9(5-2)7-6-8-3/h8H,4-7H2,1-3H3",
        "InChIKey": null,
        "Canonical SMILES": "N(C)CCN(CC)CC",
        "Molecular Formula": "C<sub>7</sub>H<sub>18</sub>N<sub>2</sub>",
        "Molecular Mass": "130.23",
        "Boiling Point": "155-160 °C"
    }
}