{
    "cas_no": "3112-31-0",
    "key_name": "Pyrazole-3,5-dicarboxylic acid",
    "cn_name": "3,5-吡唑二甲酸;",
    "alternate_name": "1<em>H</em>-Pyrazole-3,5-dicarboxylic acid;Pyrazole-3,5-dicarboxylic acid;3,5-Dicarboxypyrazole;NSC 51108;3,5-Pyrazoledicarboxylic acid",
    "duplicated_cas_no": "",
    "SMILES": "C(O)(=O)C=1C=C(C(O)=O)NN1",
    "meta_data": {
        "InChI": "InChI=1S/C5H4N2O4/c8-4(9)2-1-3(5(10)11)7-6-2/h1H,(H,6,7)(H,8,9)(H,10,11)",
        "InChIKey": null,
        "Canonical SMILES": "O=C(O)C1=NNC(=C1)C(=O)O",
        "Molecular Formula": "C<sub>5</sub>H<sub>4</sub>N<sub>2</sub>O<sub>4</sub>",
        "Molecular Mass": "156.10",
        "Melting Point": "287 °C"
    }
}