{
    "cas_no": "18952-87-9",
    "key_name": "1-Isopropyl-1<em>H</em>-pyrazole",
    "cn_name": "1-异丙基吡唑;",
    "alternate_name": "1<em>H</em>-Pyrazole, 1-(1-methylethyl)-;Pyrazole, 1-isopropyl-;1-(1-Methylethyl)-1<em>H</em>-pyrazole;1-Isopropylpyrazole;1-Isopropyl-1<em>H</em>-pyrazole;1-Propan-2-ylpyrazole;1-(Propan-2-yl)-1<em>H</em>-pyrazole",
    "duplicated_cas_no": "",
    "SMILES": "C(C)(C)N1C=CC=N1",
    "meta_data": {
        "InChI": "InChI=1S/C6H10N2/c1-6(2)8-5-3-4-7-8/h3-6H,1-2H3",
        "InChIKey": null,
        "Canonical SMILES": "N1=CC=CN1C(C)C",
        "Molecular Formula": "C<sub>6</sub>H<sub>10</sub>N<sub>2</sub>",
        "Molecular Mass": "110.16",
        "Boiling Point": "141-145 °C"
    }
}