{
    "cas_no": "118-72-9",
    "key_name": "2,6-Dimethylbenzenethiol",
    "cn_name": "2,6-二甲基苯硫酚;",
    "alternate_name": "Benzenethiol, 2,6-dimethyl-;2,6-Xylenethiol;2,6-Dimethylbenzenethiol;2,6-Dimethylthiophenol;2,6-Dimethylphenylthiol;2,6-Xylyl mercaptan",
    "duplicated_cas_no": "",
    "SMILES": "SC1=C(C)C=CC=C1C",
    "meta_data": {
        "InChI": "InChI=1S/C8H10S/c1-6-4-3-5-7(2)8(6)9/h3-5,9H,1-2H3",
        "InChIKey": null,
        "Canonical SMILES": "SC=1C(=CC=CC1C)C",
        "Molecular Formula": "C<sub>8</sub>H<sub>10</sub>S",
        "Molecular Mass": "138.23",
        "Boiling Point": "91 °C @ Press: 50 Torr",
        "Density": "1.038 g/cm³ @ Temp: 25 °C"
    }
}