{
    "cas_no": "128-37-0",
    "key_name": "2,6-Di-<em>tert</em>-butyl-4-methylphenol",
    "cn_name": "2,6-二叔丁基对甲酚;2,6-二叔丁基对甲苯酚;抗氧剂BHT;防老剂BHT;抗氧剂264;",
    "alternate_name": "Phenol, 2,6-bis(1,1-dimethylethyl)-4-methyl-;<em>p</em>-Cresol, 2,6-di-<em>tert</em>-butyl-;2,6-Bis(1,1-dimethylethyl)-4-methylphenol;CAO 1;CAO 3;Dalpac;DBPC;Deenax;2,6-Di-<em>tert</em>-butyl-<em>p</em>-methylphenol;4-Hydroxy-3,5-di-<em>tert</em>-butyltoluene;Impruvol;Ionol;Ionole;4-Methyl-2,6-di-<em>tert</em>-butylphenol;Parabar 441;Sustane BHT;Tenamene 3;Topanol OC;Vianol;BHT;Butylated hydroxytoluene;Topanol O;Topanol;Dibunol;Nonox TBC;AO 4K;Dibutylated hydroxytoluene;Ionol 1;Buks;2,6-Di-<em>tert</em>-butylcresol;Stavox;Di-<em>tert</em>-Butyl-4-methylphenol;<em>o</em>-Di-<em>tert</em>-butyl-<em>p</em>-methylphenol;Di-<em>tert</em>-butyl-<em>p</em>-cresol;Antioxidant KB;2,6-Di-<em>tert</em>-butyl-p-cresol;Antioxidant 4K;Sumilizer BHT;Di-<em>tert</em>-butylcresol;Catalin CAO 3;Chemanox 11;Vanlube PCX;Vanlube PC;Advastab 401;2,6-Di-<em>tert</em>-butyl-<em>p</em>-cresole;Antioxidant 29;AO 29;Antioxidant 30;P 21;Antioxidant DBPC;Agidol;Alkofen BP;Kerabit;Agidol 1;AO 4;Vulkanox KB;2,6-Di-<em>tert</em>-butylmethylphenol;Nocrac 200;2,6-Di-<em>tert</em>-butyl-4-hydroxytoluene;2,6-Di-<em>tert</em>-butyl-4-methyl-1-hydroxybenzene;Ionol BHT;AOX 4;AOX 4K;Antioxidant 4;Tenox BHT;Topanol BHT;Swanox BHT;2,6-Di-<em>tert</em>-butyl-4-methylhydroxybenzene;Antioxidant 264;Vanox PC;Antage BHT;3,5-Di-<em>tert</em>-butyl-4-hydroxytoluene;Popol;Ralox BHT;Permanax BHT;Antioxidant MPJ;Topanol OL;Naugard BHT;2,6-Di-<em>tert</em>-butyl-<em>p</em>-cresol;BAT;Ultranox 226;Lubrizol 817;2,6-Di-<em>tert</em>-butyl-4-methylphenol;P 21 (phenol);T 501;Ionol 330;Yoshinox BHT;2,6-Bis(<em>tert</em>-butyl)-4-methylphenol;2,6-<em>tert</em>-Butyl-4-methylphenol;Antox QT;Ionol K;Ionol CP;4-Methyl-2,6-bis(1,1-dimethylethyl)phenol;T 501 (phenol);Antioxidant T 501;BHT 264;Lowinox BHT;Selosol H 633;Tonarol;BHT-C;E 321;Dibutylcresol;Dibutylhydroxytoluene;NSC 6347;Nocrac 2000;2,6-Di-<em>tert</em>-butyl-4-cresol;Topanol O-FG;Sumilizer BHT-R;BHT Swanox;Agidol 1A;2,6-Di(<em>tert</em>-butyl)hydroxytoluene;B-NOX BHT-P;Nipanox;Antioxidant 246;K-NOX-BHT;3,5-Di-<em>tert</em>-butyl-<em>p</em>-hydroxytoluene;Grindox BHT;4-Methyl-2,6-ditertbutyl phenol;FG;Addiox 1005;2,6-Di-<em>t</em>-butyl-4-methylphenol;2,6-Ditertbutyl paracresol;Topanol C;2,6-Di-tert-butyl-p-cresol;Vulkanox BHT;Na-Lube AO 220;Dibutyl paracresol;Additin RC 1220;PN 01;M 4801;Antioxidant 501;BHT 501;Lavinix BHT;Nipanox BHT;H-BHT;Antioxidant OC;3,5-Bis(1,1-dimethylethyl)-4-hydroxytoluene;Antioxidant BHT;T 502A;NK-BHT;2,6-Di-<em>t</em>ert-butyl-4-methyl phenol;Nocrac SP-N;AO 246;Chinox BHT;Antioxidant 502A;K-NOX BHT-P;Antiager 264;Antioxidant 1005;DW 3432 (phenol);DW 3432",
    "duplicated_cas_no": "36631-28-4;42615-30-5;50356-19-9;50641-99-1;52683-46-2;53571-70-3;58500-82-6;83047-16-9;97123-41-6;102962-45-8;259752-53-9;290348-23-1;338986-13-3;1394965-02-6;1456709-94-6;1847425-90-4;2055662-96-7",
    "SMILES": "C(C)(C)(C)C1=C(O)C(C(C)(C)C)=CC(C)=C1",
    "meta_data": {
        "InChI": "InChI=1S/C15H24O/c1-10-8-11(14(2,3)4)13(16)12(9-10)15(5,6)7/h8-9,16H,1-7H3",
        "InChIKey": null,
        "Canonical SMILES": "OC=1C(=CC(=CC1C(C)(C)C)C)C(C)(C)C",
        "Molecular Formula": "C<sub>15</sub>H<sub>24</sub>O",
        "Molecular Mass": "220.35",
        "Boiling Point": "265 °C",
        "Melting Point": "70 °C",
        "Density": "1.048 g/cm³ @ Temp: 20 °C"
    }
}