{
    "cas_no": "70110-60-0",
    "key_name": "5-<em>n</em>-Tricosylresorcinol",
    "cn_name": null,
    "alternate_name": "1,3-Benzenediol, 5-tricosyl-;5-Tricosyl-1,3-benzenediol;5-Tricosylresorcinol;5-<em>n</em>-Tricosylresorcinol;1,3-Dihydroxy-5-tricosylbenzene",
    "duplicated_cas_no": "",
    "SMILES": "C(CCCCCCCCCCCCCCCCCCCCCC)C1=CC(O)=CC(O)=C1",
    "meta_data": {
        "InChI": "InChI=1S/C29H52O2/c1-2-3-4-5-6-7-8-9-10-11-12-13-14-15-16-17-18-19-20-21-22-23-27-24-28(30)26-29(31)25-27/h24-26,30-31H,2-23H2,1H3",
        "InChIKey": null,
        "Canonical SMILES": "OC=1C=C(O)C=C(C1)CCCCCCCCCCCCCCCCCCCCCCC",
        "Molecular Formula": "C<sub>29</sub>H<sub>52</sub>O<sub>2</sub>",
        "Molecular Mass": "432.72",
        "Melting Point": "100 °C"
    }
}