{
    "cas_no": "20577-61-1",
    "key_name": "Pentanoic acid, 2,4-dioxo-, methyl ester",
    "cn_name": "乙酰丙酮甲酯;2,4-二氧代戊酸甲酯;乙酰丙酮甲酯;",
    "alternate_name": "Pentanoic acid, 2,4-dioxo-, methyl ester;Valeric acid, 2,4-dioxo-, methyl ester;Methyl β-acetylpyruvate;Methyl 3-acetylpyruvate;Methyl acetylpyruvate;Methyl 2,4-dioxopentanoate;1-Methoxy-1,2,4-pentanetrione",
    "duplicated_cas_no": "",
    "SMILES": "C(C(OC)=O)(CC(C)=O)=O",
    "meta_data": {
        "InChI": "InChI=1S/C6H8O4/c1-4(7)3-5(8)6(9)10-2/h3H2,1-2H3",
        "InChIKey": null,
        "Canonical SMILES": "O=C(OC)C(=O)CC(=O)C",
        "Molecular Formula": "C<sub>6</sub>H<sub>8</sub>O<sub>4</sub>",
        "Molecular Mass": "144.13",
        "Boiling Point": "93-97 °C @ Press: 9-11 Torr",
        "Melting Point": "61.5-62.5 °C"
    }
}