{
    "cas_no": "101-96-2",
    "key_name": "<em>N</em>,<em>N</em>′-Di-<em>sec</em>-butyl-<em>p</em>-phenylenediamine",
    "cn_name": "N,N\"-二仲丁基对苯二胺;仲丁基对苯二胺抗氧剂;抗氧剂44PD;抗氧剂4720;",
    "alternate_name": "1,4-Benzenediamine, <em>N</em><sup>1</sup>,<em>N</em><sup>4</sup>-bis(1-methylpropyl)-;<em>p</em>-Phenylenediamine, <em>N</em>,<em>N</em>′-di-<em>sec</em>-butyl-;1,4-Benzenediamine, <em>N</em>,<em>N</em>′-bis(1-methylpropyl)-;<em>N</em><sup>1</sup>,<em>N</em><sup>4</sup>-Bis(1-methylpropyl)-1,4-benzenediamine;<em>N</em>,<em>N</em>′-Di-<em>sec</em>-butyl-<em>p</em>-phenylenediamine;Du Pont Gasoline Antioxidant No. 22;Topanol M;<em>N</em>,<em>N</em>′-Di-<em>sec</em>-butyl-<em>n</em>-phenylenediamine;Antioxidant 22;<em>N</em>,<em>N</em>′-Di-<em>sec</em>-butyl-<em>p</em>-phenyldiamine;Tenamene 2;UOP 5;Kerobit BPD;Naugalube 403;Unilink 4100;Sumilizer BPAM 1;Santoflex 44;Cerobit BPD;<em>N</em>,<em>N</em>′-Di-<em>sec</em>-butyl-1,4-phenylenediamine;1,4-Bis-(<em>sec</em>-butylamino)benzene;NSC 68417;<em>N</em>,<em>N</em>′-Bis(1-methylpropyl)-1,4-benzenediamine;Sumilizer BPA;Ethanox 4720;<em>N</em>,<em>N</em>′-Di-2-butyl-<em>p</em>-phenylenediamine;Antioxidant 4720;Santoflex 44PD;Antioxidant 44PD;<em>N</em>,<em>N</em>′-Di-2-butyl-1,4-phenylenediamine;1-<em>N</em>,4-<em>N</em>-Di(butan-2-yl)benzene-1,4-diamine",
    "duplicated_cas_no": "1042164-42-0",
    "SMILES": "N(C(CC)C)C1=CC=C(NC(CC)C)C=C1",
    "meta_data": {
        "InChI": "InChI=1S/C14H24N2/c1-5-11(3)15-13-7-9-14(10-8-13)16-12(4)6-2/h7-12,15-16H,5-6H2,1-4H3",
        "InChIKey": null,
        "Canonical SMILES": "C=1C=C(C=CC1NC(C)CC)NC(C)CC",
        "Molecular Formula": "C<sub>14</sub>H<sub>24</sub>N<sub>2</sub>",
        "Molecular Mass": "220.35",
        "Boiling Point": "98 °C @ Press: 0.200 Torr",
        "Melting Point": "18 °C",
        "Density": "94 g/cm³ @ Temp: 20 °C"
    }
}