{
    "cas_no": "16357-69-0",
    "key_name": "4-Amino-5-cyanopyrimidine",
    "cn_name": "4-氨基嘧啶-5-甲腈;4-氨基嘧啶-5-甲腈;4-氨基-5-氰基嘧啶;4-氨基-嘧啶-5-腈;4-氨基-5-腈基嘧啶;4-氨基-嘧啶;",
    "alternate_name": "5-Pyrimidinecarbonitrile, 4-amino-;4-Amino-5-pyrimidinecarbonitrile;4-Amino-5-cyanopyrimidine",
    "duplicated_cas_no": "",
    "SMILES": "C(#N)C=1C(N)=NC=NC1",
    "meta_data": {
        "InChI": "InChI=1S/C5H4N4/c6-1-4-2-8-3-9-5(4)7/h2-3H,(H2,7,8,9)",
        "InChIKey": null,
        "Canonical SMILES": "N#CC=1C=NC=NC1N",
        "Molecular Formula": "C<sub>5</sub>H<sub>4</sub>N<sub>4</sub>",
        "Molecular Mass": "120.11",
        "Melting Point": "250 °C"
    }
}