{
    "cas_no": "4463-33-6",
    "key_name": "2,3-Dimethoxytoluene",
    "cn_name": null,
    "alternate_name": "Benzene, 1,2-dimethoxy-3-methyl-;Toluene, 2,3-dimethoxy-;1,2-Dimethoxy-3-methylbenzene;<em>o</em>-Homoveratrole;3-Methylcatechol dimethyl ether;2,3-Dimethoxytoluene;3-Methyl-1,2-dimethoxybenzene;3-Methylveratrole;NSC 72350",
    "duplicated_cas_no": "",
    "SMILES": "O(C)C1=C(OC)C(C)=CC=C1",
    "meta_data": {
        "InChI": "InChI=1S/C9H12O2/c1-7-5-4-6-8(10-2)9(7)11-3/h4-6H,1-3H3",
        "InChIKey": null,
        "Canonical SMILES": "O(C1=CC=CC(=C1OC)C)C",
        "Molecular Formula": "C<sub>9</sub>H<sub>12</sub>O<sub>2</sub>",
        "Molecular Mass": "152.19",
        "Boiling Point": "204 °C",
        "Melting Point": "23-24 °C",
        "Density": "1.0335 g/cm³ @ Temp: 25 °C"
    }
}