{
    "cas_no": "126747-14-6",
    "key_name": "4-Cyanophenylboronic acid",
    "cn_name": "4-氰基苯硼酸;对氰基苯硼酸;",
    "alternate_name": "Boronic acid, <em>B</em>-(4-cyanophenyl)-;Boronic acid, (4-cyanophenyl)-;<em>B</em>-(4-Cyanophenyl)boronic acid;4-Cyanophenylboronic acid;4-Cyanobenzeneboronic acid;4-Cyanophenylboric acid;(<em>p</em>-Cyanophenyl)boronic acid",
    "duplicated_cas_no": "2093414-98-1",
    "SMILES": "B(O)(O)C1=CC=C(C#N)C=C1",
    "meta_data": {
        "InChI": "InChI=1S/C7H6BNO2/c9-5-6-1-3-7(4-2-6)8(10)11/h1-4,10-11H",
        "InChIKey": null,
        "Canonical SMILES": "N#CC1=CC=C(C=C1)B(O)O",
        "Molecular Formula": "C<sub>7</sub>H<sub>6</sub>BNO<sub>2</sub>",
        "Molecular Mass": "146.94",
        "Melting Point": "280 °C"
    }
}