{
    "cas_no": "16652-76-9",
    "key_name": "<span class=\"text-smallcaps\">L</span>-Valine, phenylmethyl ester, 4-methylbenzenesulfonate (1:1)",
    "cn_name": null,
    "alternate_name": "<span class=\"text-smallcaps\">L</span>-Valine, phenylmethyl ester, 4-methylbenzenesulfonate (1:1);Valine, benzyl ester, <em>p</em>-toluenesulfonate, <span class=\"text-smallcaps\">L</span>-;<span class=\"text-smallcaps\">L</span>-Valine, phenylmethyl ester, 4-methylbenzenesulfonate;Valine, benzyl ester, <em>p</em>-toluenesulfonate;<span class=\"text-smallcaps\">L</span>-Valine benzyl ester toluenesulfonate;<span class=\"text-smallcaps\">L</span>-Valine benzyl ester <em>p</em>-toluenesulfonate;Valine benzyl ester tosylate;<span class=\"text-smallcaps\">L</span>-Valine benzyl ester tosylate;Valine benzyl ester 4-toluenesulfonate;Benzyl <span class=\"text-smallcaps\">L</span>-valinate <em>p</em>-toluenesulfonate;<span class=\"text-smallcaps\">L</span>-Valine benzyl ester <em>p</em>-toluenesulfonate salt;Benzyl <span class=\"text-smallcaps\">L</span>-valinate tosylate;Benzyl <span class=\"text-smallcaps\">L</span>-valinate <em>p</em>-toluenesulfonic acid salt",
    "duplicated_cas_no": "155453-23-9;1292797-83-1",
    "SMILES": "C(OC([C@H](C(C)C)N)=O)C1=CC=CC=C1.S(=O)(=O)(O)C1=CC=C(C)C=C1",
    "meta_data": {
        "InChI": "InChI=1S/C12H17NO2.C7H8O3S/c1-9(2)11(13)12(14)15-8-10-6-4-3-5-7-10;1-6-2-4-7(5-3-6)11(8,9)10/h3-7,9,11H,8,13H2,1-2H3;2-5H,1H3,(H,8,9,10)/t11-;/m0./s1",
        "InChIKey": null,
        "Canonical SMILES": "O=C(OCC=1C=CC=CC1)C(N)C(C)C.O=S(=O)(O)C1=CC=C(C=C1)C",
        "Molecular Formula": "C<sub>12</sub>H<sub>17</sub>NO<sub>2</sub>.C<sub>7</sub>H<sub>8</sub>O<sub>3</sub>S",
        "Molecular Mass": "",
        "Melting Point": "158-160 °C"
    }
}