{
    "cas_no": "58-56-0",
    "key_name": "Pyridoxine hydrochloride",
    "cn_name": "吡哆醇盐酸盐;维生素B6盐酸盐;盐酸吡哆醇;2-甲基-3-羟基-4,5-二羟甲基吡啶盐酸盐;",
    "alternate_name": "3,4-Pyridinedimethanol, 5-hydroxy-6-methyl-, hydrochloride (1:1);Pyridoxol, hydrochloride;3,4-Pyridinedimethanol, 5-hydroxy-6-methyl-, hydrochloride;Aderoxine;Becilan;Benadon;Campoviton 6;4,5-Di(hydroxymethyl)-3-hydroxy-2-methylpyridine hydrochloride;Hexobion;Hexabetalin;Hexabione hydrochloride;Hexavibex;Hexermin;3-Hydroxy-4,5-dimethylol-α-picoline hydrochloride;5-Hydroxy-6-methyl-3,4-pyridinedicarbinol hydrochloride;5-Hydroxy-6-methyl-3,4-pyridinedimethanol hydrochloride;2-Methyl-3-hydroxy-4,5-bis(hydroxymethyl)pyridine hydrochloride;2-Methyl-3-hydroxy-4,5-di(hydroxymethyl)pyridine hydrochloride;Pyridipca;Pyridoxin hydrochloride;Vitamin B<sub>6</sub> hydrochloride;Pyridoxine hydrochloride;3-Hydroxy-4,5-bis(hydroxymethyl)-2-methylpyridine hydrochloride;Pyridoxine hydrogen chloride;Pyridoxine chloride;4,5-Bis(hydroxymethyl)-2-methylpyridin-3-ol hydrochloride;Aderomine hydrochloride;Pyridoxinium chloride;Aderoxin;Pyridoxine monohydrochloride;4,5-Bis(hydroxymethyl)-3-hydroxy-2-methylpyridine hydrochloride;4,5-Dimethylol-3-hydroxy-2-methylpyridine hydrochloride;Pyridox;Beesix;Bonasanit",
    "duplicated_cas_no": "",
    "SMILES": "C(O)C=1C(CO)=CN=C(C)C1O.Cl",
    "meta_data": {
        "InChI": "InChI=1S/C8H11NO3.ClH/c1-5-8(12)7(4-11)6(3-10)2-9-5;/h2,10-12H,3-4H2,1H3;1H",
        "InChIKey": null,
        "Canonical SMILES": "Cl.OC=1C(=NC=C(C1CO)CO)C",
        "Molecular Formula": "C<sub>8</sub>H<sub>11</sub>NO<sub>3</sub>.ClH",
        "Molecular Mass": "",
        "Melting Point": "207 °C"
    }
}