{
    "cas_no": "75272-39-8",
    "key_name": "Nemonapride",
    "cn_name": "顺-5-氯-2-甲氧基-4-(甲基氨基)-N-[2-甲基-2-(苯基甲基)-3-吡咯烷基]苯甲酰胺;",
    "alternate_name": "Benzamide, 5-chloro-2-methoxy-4-(methylamino)-<em>N</em>-[(2<em>R</em>,3<em>R</em>)-2-methyl-1-(phenylmethyl)-3-pyrrolidinyl]-, <em>rel</em>-;Benzamide, 5-chloro-2-methoxy-4-(methylamino)-<em>N</em>-[2-methyl-1-(phenylmethyl)-3-pyrrolidinyl]-, <em>cis</em>-;<em>rel</em>-5-Chloro-2-methoxy-4-(methylamino)-<em>N</em>-[(2<em>R</em>,3<em>R</em>)-2-methyl-1-(phenylmethyl)-3-pyrrolidinyl]benzamide;YM 09151-2;YM 09151;Emonapride;Nemonapride;Emilace",
    "duplicated_cas_no": "93664-94-9",
    "SMILES": "C(N[C@H]1[C@@H](C)N(CC2=CC=CC=C2)CC1)(=O)C3=C(OC)C=C(NC)C(Cl)=C3",
    "meta_data": {
        "InChI": "InChI=1/C21H26ClN3O2/c1-14-18(9-10-25(14)13-15-7-5-4-6-8-15)24-21(26)16-11-17(22)19(23-2)12-20(16)27-3/h4-8,11-12,14,18,23H,9-10,13H2,1-3H3,(H,24,26)/t14-,18-/s2",
        "InChIKey": null,
        "Canonical SMILES": "O=C(NC1CCN(CC=2C=CC=CC2)C1C)C=3C=C(Cl)C(=CC3OC)NC",
        "Molecular Formula": "C<sub>21</sub>H<sub>26</sub>ClN<sub>3</sub>O<sub>2</sub>",
        "Molecular Mass": "387.90",
        "Melting Point": "152-153 °C"
    }
}