{
    "cas_no": "10238-27-4",
    "key_name": "<em>o</em>-Nitrophenyl β-<span class=\"text-smallcaps\">D</span>-xylopyranoside",
    "cn_name": null,
    "alternate_name": "β-<span class=\"text-smallcaps\">D</span>-Xylopyranoside, 2-nitrophenyl;Xylopyranoside, <em>o</em>-nitrophenyl, β-<span class=\"text-smallcaps\">D</span>-;Xylopyranoside, <em>o</em>-nitrophenyl;2-Nitrophenyl β-<span class=\"text-smallcaps\">D</span>-xylopyranoside;<em>o</em>-Nitrophenyl β-<span class=\"text-smallcaps\">D</span>-xylopyranoside",
    "duplicated_cas_no": "67424-01-5",
    "SMILES": "O(C1=C(N(=O)=O)C=CC=C1)[C@H]2[C@H](O)[C@@H](O)[C@H](O)CO2",
    "meta_data": {
        "InChI": "InChI=1S/C11H13NO7/c13-7-5-18-11(10(15)9(7)14)19-8-4-2-1-3-6(8)12(16)17/h1-4,7,9-11,13-15H,5H2/t7-,9+,10-,11+/m1/s1",
        "InChIKey": null,
        "Canonical SMILES": "O=N(=O)C=1C=CC=CC1OC2OCC(O)C(O)C2O",
        "Molecular Formula": "C<sub>11</sub>H<sub>13</sub>NO<sub>7</sub>",
        "Molecular Mass": "271.22",
        "Melting Point": "170-173 °C"
    }
}