{
    "cas_no": "262353-34-4",
    "key_name": "2,4-Diiodopyrimidine",
    "cn_name": null,
    "alternate_name": "Pyrimidine, 2,4-diiodo-;2,4-Diiodopyrimidine",
    "duplicated_cas_no": "",
    "SMILES": "IC1=NC(I)=NC=C1",
    "meta_data": {
        "InChI": "InChI=1S/C4H2I2N2/c5-3-1-2-7-4(6)8-3/h1-2H",
        "InChIKey": null,
        "Canonical SMILES": "IC1=NC=CC(I)=N1",
        "Molecular Formula": "C<sub>4</sub>H<sub>2</sub>I<sub>2</sub>N<sub>2</sub>",
        "Molecular Mass": "331.88",
        "Melting Point": "125-126 °C"
    }
}