{
    "cas_no": "26134-62-3",
    "key_name": "Lithium nitride",
    "cn_name": "氮化锂;氮化锂;",
    "alternate_name": "Lithium nitride (Li<sub>3</sub>N);Trilithium nitride (Li<sub>3</sub>N);Trilithium nitride;Lithium nitride",
    "duplicated_cas_no": "1253220-15-3;2364415-92-7",
    "SMILES": "N([Li])([Li])[Li]",
    "meta_data": {
        "InChI": "InChI=1S/3Li.N",
        "InChIKey": null,
        "Canonical SMILES": "[Li]N([Li])[Li]",
        "Molecular Formula": "Li<sub>3</sub>N",
        "Molecular Mass": "",
        "Melting Point": "813 °C",
        "Density": "1.27 g/cm³"
    }
}