{
    "cas_no": "1515-81-7",
    "key_name": "1-Methoxy-4-(methoxymethyl)benzene",
    "cn_name": null,
    "alternate_name": "Benzene, 1-methoxy-4-(methoxymethyl)-;Toluene, <em>p</em>,α-dimethoxy-;1-Methoxy-4-(methoxymethyl)benzene;<em>p</em>-Methoxybenzyl methyl ether;<em>p</em>-Methoxymethylanisole;4-Methoxymethylanisole;4-Methoxybenzyl methyl ether;<em>p</em>-Methoxybenzylalcohol methyl ether;NSC 37490",
    "duplicated_cas_no": "",
    "SMILES": "C(OC)C1=CC=C(OC)C=C1",
    "meta_data": {
        "InChI": "InChI=1S/C9H12O2/c1-10-7-8-3-5-9(11-2)6-4-8/h3-6H,7H2,1-2H3",
        "InChIKey": null,
        "Canonical SMILES": "O(C1=CC=C(C=C1)COC)C",
        "Molecular Formula": "C<sub>9</sub>H<sub>12</sub>O<sub>2</sub>",
        "Molecular Mass": "152.19",
        "Boiling Point": "107-108 °C",
        "Melting Point": "203-204 °C",
        "Density": "1.026 g/cm³ @ Temp: 20 °C"
    }
}