{
    "cas_no": "488-82-4",
    "key_name": "<span class=\"text-smallcaps\">D</span>-Arabitol",
    "cn_name": "D-(+)-阿糖醇;D-阿拉伯糖醇;D(+)-树胶糖醇;D-(+)-阿糖醇;",
    "alternate_name": "<span class=\"text-smallcaps\">D</span>-Arabinitol;Arabinitol, <span class=\"text-smallcaps\">D</span>-;<span class=\"text-smallcaps\">D</span>-Arabitol;<span class=\"text-smallcaps\">D</span>-(+)-Arabitol;(+)-Arabitol;NSC 25288;<span class=\"text-smallcaps\">D</span>-Lyxitol;<span class=\"text-smallcaps\">D</span>-<em>arabino</em>-Pentitol;<span class=\"text-smallcaps\">D</span>-<em>lyxo</em>-Pentitol",
    "duplicated_cas_no": "7431-50-7;2077894-89-2",
    "SMILES": "C(C(CO)O)(C(CO)O)O",
    "meta_data": {
        "InChI": "InChI=1S/C5H12O5/c6-1-3(8)5(10)4(9)2-7/h3-10H,1-2H2",
        "InChIKey": null,
        "Canonical SMILES": "OCC(O)C(O)C(O)CO",
        "Molecular Formula": "C<sub>5</sub>H<sub>12</sub>O<sub>5</sub>",
        "Molecular Mass": "152.15",
        "Melting Point": "103 °C"
    }
}