{
    "cas_no": "288-14-2",
    "key_name": "Isoxazole",
    "cn_name": "异恶唑;异噁唑;",
    "alternate_name": "Isoxazole;1-Oxa-2-azacyclopentadiene;1,2-Oxazole;NSC 137774;2-Azafuran",
    "duplicated_cas_no": "",
    "SMILES": "C=1C=NOC1",
    "meta_data": {
        "InChI": "InChI=1S/C3H3NO/c1-2-4-5-3-1/h1-3H",
        "InChIKey": null,
        "Canonical SMILES": "N=1OC=CC1",
        "Molecular Formula": "C<sub>3</sub>H<sub>3</sub>NO",
        "Molecular Mass": "69.06",
        "Boiling Point": "95 °C",
        "Density": "1.078 g/cm³ @ Temp: 20 °C"
    }
}