{
    "cas_no": "36653-82-4",
    "key_name": "Cetyl alcohol",
    "cn_name": null,
    "alternate_name": "1-Hexadecanol;Cetyl alcohol;Siponol CC;Siponol Wax A;Cetanol;<em>n</em>-1-Hexadecanol;Adol 52NF;<em>n</em>-Cetyl alcohol;Atalco C;Cetaffine;Cetal;Cetalol CA;Cetylic alcohol;Cetylol;Crodacol CAS;Crodacol CAT;Ethal;Ethol;<em>n</em>-Hexadecanol;Lorol 24;Loxanol K;Loxanol K extra;Palmityl alcohol;Product 308;Adol 52;Hexadecanol;Hexadecyl alcohol;Loxanwax SK;Elfacos C;Lanol C;Adol 54;Crodacol C;Alfol 16;Cachalot C 51;Hyfatol 16;Palmitic alcohol;Kalcohl 60;1-Cetanol;Lorol C 16;CO 1695;Epal 16;Laurex 16;Cetalcos;Tego Alkanol 16;Lanette 16;Conol 1695;Hyfatol 16-85;Hyfatol 16-95;NSC 4194;Alfol 16RD;Kalcohl 6098;NAA 44;CO 1695F;Lipocol C;Crodacol C 95;Cetyl Alcohol NX;Nacol 1618;Kalcol 6098;Hainol 16SS;Lorol C 14/98;Lanette 1665;<em>n</em>-Hexadecyl alcohol;Nacol 16-99;Cetanol NX;Speziol C 16;Kolliwax CA;Nacol 16-95;Cetanol 70;Conol 1670;1-Hydroxyhexadecane;Crodacol C 90;Spermol;Ginol 16;Kalcol 6028;Nafol 16;SP Crodacol C 90MBAL;Kalkol 6098",
    "duplicated_cas_no": "124-29-8;8014-51-5;8023-37-8;8032-16-4;8032-17-5;8032-89-1;55069-45-9;1173838-87-3",
    "SMILES": "C(CCCCCCCC)CCCCCCCO",
    "meta_data": {
        "InChI": "InChI=1S/C16H34O/c1-2-3-4-5-6-7-8-9-10-11-12-13-14-15-16-17/h17H,2-16H2,1H3",
        "InChIKey": null,
        "Canonical SMILES": "OCCCCCCCCCCCCCCCC",
        "Molecular Formula": "C<sub>16</sub>H<sub>34</sub>O",
        "Molecular Mass": "242.44",
        "Boiling Point": "334 °C @ Press: 760 Torr",
        "Melting Point": "49.3 °C",
        "Density": "0.8187 g/cm³ @ Temp: 50 °C"
    }
}