{
    "cas_no": "1210-35-1",
    "key_name": "Dibenzosuberone",
    "cn_name": "10,11-二氢二苯并[a,b]环庚烯-5-酮;",
    "alternate_name": "5<em>H</em>-Dibenzo[<em>a</em>,<em>d</em>]cyclohepten-5-one, 10,11-dihydro-;10,11-Dihydro-5<em>H</em>-dibenzo[<em>a</em>,<em>d</em>]cyclohepten-5-one;Dibenzosuberone;Dibenzocycloheptenone;Dibenzo[<em>a</em>,<em>d</em>]cycloheptadien-5-one;Dibenzo[<em>a</em>,<em>d</em>]cyclohepta[1,4]dien-5-one;10,11-Dihydrodibenzo[<em>a</em>,<em>d</em>]cyclohepten-5-one;10,11-Dihydro-5<em>H</em>-dibenzo[<em>a</em>,<em>d</em>]cycloheptan-5-one;2,3:6,7-Dibenzosuberone;Dibenzosuberan-5-one;10,11-Dihydro-5<em>H</em>-dibenzo[<em>a</em>,<em>d</em>]cycloheptatrien-5-one;NSC 49727;10,11-Dihydro-5<em>H</em>-dibenzo[<em>a</em>,<em>d</em>][7]annulen-5-one",
    "duplicated_cas_no": "",
    "SMILES": "O=C1C=2C(CCC=3C1=CC=CC3)=CC=CC2",
    "meta_data": {
        "InChI": "InChI=1S/C15H12O/c16-15-13-7-3-1-5-11(13)9-10-12-6-2-4-8-14(12)15/h1-8H,9-10H2",
        "InChIKey": null,
        "Canonical SMILES": "O=C1C=2C=CC=CC2CCC=3C=CC=CC13",
        "Molecular Formula": "C<sub>15</sub>H<sub>12</sub>O",
        "Molecular Mass": "208.26",
        "Boiling Point": "203-204 °C @ Press: 7 Torr",
        "Melting Point": "30 °C",
        "Density": "1.1635 g/cm³ @ Temp: 20 °C"
    }
}