{
    "cas_no": "1028206-58-7",
    "key_name": "(<em>SP</em>-4-4)-[2-[2-(Amino-κ<em>N</em>)ethyl]phenyl-κ<em>C</em>]chloro[dicyclohexyl(2′,6′-dimethoxy[1,1′-biphenyl]-2-yl)phosphine-κ<em>P</em>]palladium",
    "cn_name": null,
    "alternate_name": "Palladium, [2-[2-(amino-κ<em>N</em>)ethyl]phenyl-κ<em>C</em>]chloro[dicyclohexyl(2′,6′-dimethoxy[1,1′-biphenyl]-2-yl)phosphine-κ<em>P</em>]-, (<em>SP</em>-4-4)-;(<em>SP</em>-4-4)-[2-[2-(Amino-κ<em>N</em>)ethyl]phenyl-κ<em>C</em>]chloro[dicyclohexyl(2′,6′-dimethoxy[1,1′-biphenyl]-2-yl)phosphine-κ<em>P</em>]palladium",
    "duplicated_cas_no": "",
    "SMILES": "[P](C1=C(C=CC=C1)C2=C(OC)C=CC=C2OC)([Pd+2]3([Cl-])[C-]=4C(CC[NH2]3)=CC=CC4)(C5CCCCC5)C6CCCCC6",
    "meta_data": {
        "InChI": "InChI=1S/C26H35O2P.C8H10N.ClH.Pd/c1-27-23-17-11-18-24(28-2)26(23)22-16-9-10-19-25(22)29(20-12-5-3-6-13-20)21-14-7-4-8-15-21;9-7-6-8-4-2-1-3-5-8;;/h9-11,16-21H,3-8,12-15H2,1-2H3;1-4H,6-7,9H2;1H;/q;-1;;+2/p-1",
        "InChIKey": null,
        "Canonical SMILES": "[Cl-][Pd+2]1([C-]=2C=CC=CC2CC[NH2]1)[P](C3=CC=CC=C3C=4C(OC)=CC=CC4OC)(C5CCCCC5)C6CCCCC6",
        "Molecular Formula": "C<sub>34</sub>H<sub>45</sub>ClNO<sub>2</sub>PPd",
        "Molecular Mass": "",
        "Melting Point": "176 °C (decomp)"
    }
}