{
    "cas_no": "1191-04-4",
    "key_name": "2-Hexenoic acid",
    "cn_name": null,
    "alternate_name": "2-Hexenoic acid;α-Hexenoic acid",
    "duplicated_cas_no": "",
    "SMILES": "C(=CCCC)C(O)=O",
    "meta_data": {
        "InChI": "InChI=1S/C6H10O2/c1-2-3-4-5-6(7)8/h4-5H,2-3H2,1H3,(H,7,8)",
        "InChIKey": null,
        "Canonical SMILES": "O=C(O)C=CCCC",
        "Molecular Formula": "C<sub>6</sub>H<sub>10</sub>O<sub>2</sub>",
        "Molecular Mass": "114.14",
        "Boiling Point": "216.5 °C",
        "Melting Point": "36.5 °C",
        "Density": "0.949 g/cm³ @ Temp: 40 °C"
    }
}