{
    "cas_no": "61789-51-3",
    "key_name": "Naphthenic acids, cobalt salts",
    "cn_name": null,
    "alternate_name": "Naphthenic acids, cobalt salts;Naphthenic acids, cobalt salt;Naphthenic acid, cobalt salts;Cobalt naphthenates;Cobalt naphthenate;Naftolite;Naphthex Co;8SN-Co;Cobalt Nap-All;Nap-All;RC-N 10;Manobond LP 839;NF 1;NF 4;NF 1 (catalyst);NF 4 (catalyst);Polymal P 106;CN 10;CN 10 (adhesion promoter);PA 203;PA 203 (accelerator);UNK;NK 1;NK 1 (accelerator);CN 6;CN 6 (catalyst);Co Naphthenate;AC 1 (accelerator);AC 1;EC 8;Cobalt N;CoNAP;PR-CBZ 01;CY 5656",
    "duplicated_cas_no": "51806-61-2;161279-65-8",
    "SMILES": "",
    "meta_data": {
        "InChI": "",
        "InChIKey": null,
        "Canonical SMILES": "",
        "Molecular Formula": "Unspecified",
        "Molecular Mass": "",
        "Melting Point": "140 °C",
        "Density": "0.9 g/cm³"
    }
}