{
    "uri": "substance/pt/61789513",
    "rn": "61789-51-3",
    "name": "Naphthenic acids, cobalt salts",
    "images": [],
    "inchi": "",
    "inchiKey": "",
    "smile": "",
    "canonicalSmile": "",
    "molecularFormula": "Unspecified",
    "molecularMass": "",
    "experimentalProperties": [
        {
            "name": "Melting Point",
            "property": "140 °C",
            "sourceNumber": 1
        },
        {
            "name": "Density",
            "property": "0.9 g/cm³",
            "sourceNumber": 1
        }
    ],
    "propertyCitations": [
        {
            "docUri": "",
            "sourceNumber": 1,
            "source": "International Chemical Safety Cards data were obtained from the National Institute for Occupational Safety and Health (US)"
        }
    ],
    "synonyms": [
        "Naphthenic acids, cobalt salts",
        "Naphthenic acids, cobalt salt",
        "Naphthenic acid, cobalt salts",
        "Cobalt naphthenates",
        "Cobalt naphthenate",
        "Naftolite",
        "Naphthex Co",
        "8SN-Co",
        "Cobalt Nap-All",
        "Nap-All",
        "RC-N 10",
        "Manobond LP 839",
        "NF 1",
        "NF 4",
        "NF 1 (catalyst)",
        "NF 4 (catalyst)",
        "Polymal P 106",
        "CN 10",
        "CN 10 (adhesion promoter)",
        "PA 203",
        "PA 203 (accelerator)",
        "UNK",
        "NK 1",
        "NK 1 (accelerator)",
        "CN 6",
        "CN 6 (catalyst)",
        "Co Naphthenate",
        "AC 1 (accelerator)",
        "AC 1",
        "EC 8",
        "Cobalt N",
        "CoNAP",
        "PR-CBZ 01",
        "CY 5656"
    ],
    "replacedRns": [
        "51806-61-2",
        "161279-65-8"
    ],
    "hasMolfile": false,
    "source": "https://commonchemistry.cas.org/detail?cas_rn=61789-51-3"
}