{
    "cas_no": "65907-30-4",
    "key_name": "Furathiocarb",
    "cn_name": "呋线威;2,4-二甲基-6-氧杂-5-氧代-3-硫杂-2,4-二氮杂癸酸2,3-二氢-2,2-二甲基-7-苯并呋喃酯;",
    "alternate_name": "6-Oxa-3-thia-2,4-diazadecanoic acid, 2,4-dimethyl-5-oxo-, 2,3-dihydro-2,2-dimethyl-7-benzofuranyl ester;CGA 73102;Deltanet;Furathiocarb;Promet 666SCO;Promet",
    "duplicated_cas_no": "78320-89-5",
    "SMILES": "O(C(N(SN(C(OCCCC)=O)C)C)=O)C1=C2C(CC(C)(C)O2)=CC=C1",
    "meta_data": {
        "InChI": "InChI=1S/C18H26N2O5S/c1-6-7-11-23-16(21)19(4)26-20(5)17(22)24-14-10-8-9-13-12-18(2,3)25-15(13)14/h8-10H,6-7,11-12H2,1-5H3",
        "InChIKey": null,
        "Canonical SMILES": "O=C(OC1=CC=CC2=C1OC(C)(C)C2)N(SN(C(=O)OCCCC)C)C",
        "Molecular Formula": "C<sub>18</sub>H<sub>26</sub>N<sub>2</sub>O<sub>5</sub>S",
        "Molecular Mass": "382.47",
        "Boiling Point": "160 °C @ Press: 0.01 Torr",
        "Melting Point": "&lt;25 °C",
        "Density": "1.148 g/cm³ @ Temp: 20 °C"
    }
}