{
    "cas_no": "2419-73-0",
    "key_name": "1,4-Dichloro-2,3-butanediol",
    "cn_name": "DL-1,4-二氯-2,3-丁二醇;",
    "alternate_name": "2,3-Butanediol, 1,4-dichloro-;1,4-Dichloro-2,3-butanediol",
    "duplicated_cas_no": "",
    "SMILES": "C(C(CCl)O)(CCl)O",
    "meta_data": {
        "InChI": "InChI=1S/C4H8Cl2O2/c5-1-3(7)4(8)2-6/h3-4,7-8H,1-2H2",
        "InChIKey": null,
        "Canonical SMILES": "ClCC(O)C(O)CCl",
        "Molecular Formula": "C<sub>4</sub>H<sub>8</sub>Cl<sub>2</sub>O<sub>2</sub>",
        "Molecular Mass": "159.01",
        "Boiling Point": "113-118 °C @ Press: 4 Torr",
        "Melting Point": "126.5 °C"
    }
}