{
    "cas_no": "99624-28-9",
    "key_name": "4-[(2<em>S</em>)-3,4-Dihydro-7-hydroxy-2<em>H</em>-1-benzopyran-2-yl]-3,6-bis(3-methyl-2-buten-1-yl)-1,2-benzenediol",
    "cn_name": null,
    "alternate_name": "1,2-Benzenediol, 4-[(2<em>S</em>)-3,4-dihydro-7-hydroxy-2<em>H</em>-1-benzopyran-2-yl]-3,6-bis(3-methyl-2-buten-1-yl)-;1,2-Benzenediol, 4-(3,4-dihydro-7-hydroxy-2<em>H</em>-1-benzopyran-2-yl)-3,6-bis(3-methyl-2-butenyl)-, (<em>S</em>)-;1,2-Benzenediol, 4-[(2<em>S</em>)-3,4-dihydro-7-hydroxy-2<em>H</em>-1-benzopyran-2-yl]-3,6-bis(3-methyl-2-butenyl)-;4-[(2<em>S</em>)-3,4-Dihydro-7-hydroxy-2<em>H</em>-1-benzopyran-2-yl]-3,6-bis(3-methyl-2-buten-1-yl)-1,2-benzenediol;(-)-Kazinol A;Kazinol A",
    "duplicated_cas_no": "",
    "SMILES": "C(C=C(C)C)C1=C(C=C(CC=C(C)C)C(O)=C1O)[C@H]2OC=3C(CC2)=CC=C(O)C3",
    "meta_data": {
        "InChI": "InChI=1S/C25H30O4/c1-15(2)5-7-18-13-21(20(11-6-16(3)4)25(28)24(18)27)22-12-9-17-8-10-19(26)14-23(17)29-22/h5-6,8,10,13-14,22,26-28H,7,9,11-12H2,1-4H3/t22-/m0/s1",
        "InChIKey": null,
        "Canonical SMILES": "OC1=CC=C2C(OC(C3=CC(=C(O)C(O)=C3CC=C(C)C)CC=C(C)C)CC2)=C1",
        "Molecular Formula": "C<sub>25</sub>H<sub>30</sub>O<sub>4</sub>",
        "Molecular Mass": "394.50",
        "Melting Point": "129-130 °C"
    }
}