{
    "cas_no": "543739-84-0",
    "key_name": "3-(Trifluoromethyl)-1<em>H</em>-pyrazole-4-carboxylic acid",
    "cn_name": null,
    "alternate_name": "1<em>H</em>-Pyrazole-4-carboxylic acid, 3-(trifluoromethyl)-;3-(Trifluoromethyl)-1<em>H</em>-pyrazole-4-carboxylic acid;3-(Trifluoromethyl)pyrazole-4-carboxylic acid",
    "duplicated_cas_no": "700372-25-4;1259932-11-0",
    "SMILES": "C(F)(F)(F)C=1C(C(O)=O)=CNN1",
    "meta_data": {
        "InChI": "InChI=1S/C5H3F3N2O2/c6-5(7,8)3-2(4(11)12)1-9-10-3/h1H,(H,9,10)(H,11,12)",
        "InChIKey": null,
        "Canonical SMILES": "O=C(O)C1=CNN=C1C(F)(F)F",
        "Molecular Formula": "C<sub>5</sub>H<sub>3</sub>F<sub>3</sub>N<sub>2</sub>O<sub>2</sub>",
        "Molecular Mass": "180.08",
        "Melting Point": "249-250 °C"
    }
}