{
    "cas_no": "620-42-8",
    "key_name": "Phosphorous acid, tris(4-methylphenyl) ester",
    "cn_name": "亚磷酸三对甲苯酯;",
    "alternate_name": "Phosphorous acid, tris(4-methylphenyl) ester;Phosphorous acid, tri-<em>p</em>-tolyl ester;<em>p</em>-Tolyl phosphite ((C<sub>7</sub>H<sub>7</sub>O)<sub>3</sub>P);<em>p</em>-Tolyl phosphite;Tri-<em>p</em>-tolyl phosphite;Tri-<em>p</em>-cresyl phosphite;Tris(<em>p</em>-methylphenyl) phosphite;Tris(<em>p</em>-tolyl) phosphite;Tris(4-methylphenyl) phosphite;Tris(4-tolyl) phosphite;NSC 4054;Tris(4-methylphenoxy)phosphine",
    "duplicated_cas_no": "",
    "SMILES": "P(OC1=CC=C(C)C=C1)(OC2=CC=C(C)C=C2)OC3=CC=C(C)C=C3",
    "meta_data": {
        "InChI": "InChI=1S/C21H21O3P/c1-16-4-10-19(11-5-16)22-25(23-20-12-6-17(2)7-13-20)24-21-14-8-18(3)9-15-21/h4-15H,1-3H3",
        "InChIKey": null,
        "Canonical SMILES": "O(C1=CC=C(C=C1)C)P(OC2=CC=C(C=C2)C)OC3=CC=C(C=C3)C",
        "Molecular Formula": "C<sub>21</sub>H<sub>21</sub>O<sub>3</sub>P",
        "Molecular Mass": "352.36",
        "Boiling Point": "285 °C @ Press: 11 Torr",
        "Melting Point": "50.6-51.9 °C",
        "Density": "1.128 g/cm³ @ Temp: 20 °C"
    }
}