{
    "cas_no": "15307-81-0",
    "key_name": "Diclofenac potassium",
    "cn_name": "双氯芬酸钾;2-[(2,6-二氯苯基)氨基]苯乙酸钾;",
    "alternate_name": "Benzeneacetic acid, 2-[(2,6-dichlorophenyl)amino]-, potassium salt (1:1);Acetic acid, [<em>o</em>-(2,6-dichloroanilino)phenyl]-, monopotassium salt;Benzeneacetic acid, 2-[(2,6-dichlorophenyl)amino]-, monopotassium salt;Potassium diclofenac;Diclofenac potassium;CGP 45840B;Cataflam;ProSorb;K-fenak;Caflam;Zipsor;Cambia;K-Fenak",
    "duplicated_cas_no": "",
    "SMILES": "N(C1=C(CC(O)=O)C=CC=C1)C2=C(Cl)C=CC=C2Cl.[K]",
    "meta_data": {
        "InChI": "InChI=1S/C14H11Cl2NO2.K/c15-10-5-3-6-11(16)14(10)17-12-7-2-1-4-9(12)8-13(18)19;/h1-7,17H,8H2,(H,18,19);",
        "InChIKey": null,
        "Canonical SMILES": "[K].O=C(O)CC=1C=CC=CC1NC=2C(Cl)=CC=CC2Cl",
        "Molecular Formula": "C<sub>14</sub>H<sub>11</sub>Cl<sub>2</sub>NO<sub>2</sub>.K",
        "Molecular Mass": "",
        "Melting Point": "300-330 °C"
    }
}