{
    "cas_no": "1638-86-4",
    "key_name": "Diethyl phenylphosphonite",
    "cn_name": "苯基亚磷酸二乙酯;苯基亚磷酸二乙酯;苯基亚膦酸二乙酯;二乙氧基苯膦;苯基膦酸二乙酯;",
    "alternate_name": "Phosphonous acid, <em>P</em>-phenyl-, diethyl ester;Phosphonous acid, phenyl-, diethyl ester;Diethyl phenylphosphonite;Diethoxyphenylphosphine;Diethyl benzenephosphonite",
    "duplicated_cas_no": "",
    "SMILES": "P(OCC)(OCC)C1=CC=CC=C1",
    "meta_data": {
        "InChI": "InChI=1S/C10H15O2P/c1-3-11-13(12-4-2)10-8-6-5-7-9-10/h5-9H,3-4H2,1-2H3",
        "InChIKey": null,
        "Canonical SMILES": "O(P(OCC)C=1C=CC=CC1)CC",
        "Molecular Formula": "C<sub>10</sub>H<sub>15</sub>O<sub>2</sub>P",
        "Molecular Mass": "198.20",
        "Boiling Point": "110-111 °C @ Press: 10-13 Torr",
        "Density": "1.0405 g/cm³ @ Temp: 00 °C"
    }
}