{
    "cas_no": "580-20-1",
    "key_name": "7-Hydroxyquinoline",
    "cn_name": "7-羟基喹啉;",
    "alternate_name": "7-Quinolinol;7-Hydroxyquinoline;NSC 87630",
    "duplicated_cas_no": "",
    "SMILES": "OC1=CC2=C(C=C1)C=CC=N2",
    "meta_data": {
        "InChI": "InChI=1S/C9H7NO/c11-8-4-3-7-2-1-5-10-9(7)6-8/h1-6,11H",
        "InChIKey": null,
        "Canonical SMILES": "OC1=CC=C2C=CC=NC2=C1",
        "Molecular Formula": "C<sub>9</sub>H<sub>7</sub>NO",
        "Molecular Mass": "145.16",
        "Melting Point": "239 °C"
    }
}