{
    "cas_no": "167760-75-0",
    "key_name": "Benzoic acid, 4-amino-3-(trifluoromethyl)-, methyl ester",
    "cn_name": null,
    "alternate_name": "Benzoic acid, 4-amino-3-(trifluoromethyl)-, methyl ester;Methyl 3-(trifluoromethyl)-4-aminobenzoate;4-Amino-3-trifluoromethylbenzoic acid methyl ester;Methyl 4-amino-3-trifluoromethylbenzoate",
    "duplicated_cas_no": "",
    "SMILES": "C(F)(F)(F)C1=CC(C(OC)=O)=CC=C1N",
    "meta_data": {
        "InChI": "InChI=1S/C9H8F3NO2/c1-15-8(14)5-2-3-7(13)6(4-5)9(10,11)12/h2-4H,13H2,1H3",
        "InChIKey": null,
        "Canonical SMILES": "O=C(OC)C1=CC=C(N)C(=C1)C(F)(F)F",
        "Molecular Formula": "C<sub>9</sub>H<sub>8</sub>F<sub>3</sub>NO<sub>2</sub>",
        "Molecular Mass": "219.16",
        "Melting Point": "112-114 °C"
    }
}