{
    "cas_no": "627-54-3",
    "key_name": "1,1′-Tellurobis[ethane]",
    "cn_name": "二乙基碲;",
    "alternate_name": "Ethane, 1,1′-tellurobis-;Ethyl telluride;1,1′-Tellurobis[ethane];Diethyl telluride;Diethyltellurium",
    "duplicated_cas_no": "",
    "SMILES": "[Te](CC)CC",
    "meta_data": {
        "InChI": "InChI=1S/C4H10Te/c1-3-5-4-2/h3-4H2,1-2H3",
        "InChIKey": null,
        "Canonical SMILES": "[Te](CC)CC",
        "Molecular Formula": "C<sub>4</sub>H<sub>10</sub>Te",
        "Molecular Mass": "",
        "Boiling Point": "137.5 °C",
        "Density": "1.5939 g/cm³ (liquid) @ Temp: 20.000 °C"
    }
}