{
    "cas_no": "256445-66-6",
    "key_name": "(3β,7β)-7-Methoxystigmast-5-en-3-ol",
    "cn_name": null,
    "alternate_name": "Stigmast-5-en-3-ol, 7-methoxy-, (3β,7β)-;(3β,7β)-7-Methoxystigmast-5-en-3-ol;Schleicheol 1;7β-Methoxystigmast-5-en-3β-ol",
    "duplicated_cas_no": "",
    "SMILES": "O(C)[C@@H]1[C@@]2([C@@]([C@]3(C)C(=C1)C[C@@H](O)CC3)(CC[C@@]4(C)[C@]2(CC[C@@]4([C@@H](CC[C@H](C(C)C)CC)C)[H])[H])[H])[H]",
    "meta_data": {
        "InChI": "InChI=1S/C30H52O2/c1-8-21(19(2)3)10-9-20(4)24-11-12-25-28-26(14-16-30(24,25)6)29(5)15-13-23(31)17-22(29)18-27(28)32-7/h18-21,23-28,31H,8-17H2,1-7H3/t20-,21-,23+,24-,25+,26+,27+,28+,29+,30-/m1/s1",
        "InChIKey": null,
        "Canonical SMILES": "OC1CC2=CC(OC)C3C(CCC4(C)C(CCC34)C(C)CCC(CC)C(C)C)C2(C)CC1",
        "Molecular Formula": "C<sub>30</sub>H<sub>52</sub>O<sub>2</sub>",
        "Molecular Mass": "444.73",
        "Melting Point": "82-88 °C"
    }
}