{
    "cas_no": "69984-73-2",
    "key_name": "Nonyl β-<span class=\"text-smallcaps\">D</span>-glucopyranoside",
    "cn_name": "壬基-β-D-吡喃半乳糖苷;",
    "alternate_name": "β-<span class=\"text-smallcaps\">D</span>-Glucopyranoside, nonyl;Nonyl β-<span class=\"text-smallcaps\">D</span>-glucopyranoside;Nonyl β-glucopyranoside;<em>n</em>-Nonyl β-<span class=\"text-smallcaps\">D</span>-glucopyranoside;Nonyl glucoside;Nonyl β-<span class=\"text-smallcaps\">D</span>-glucoside;<em>n</em>-Nonyl β-glucoside",
    "duplicated_cas_no": "124828-35-9;556053-40-8;823817-68-1",
    "SMILES": "O(CCCCCCCCC)[C@@H]1O[C@H](CO)[C@@H](O)[C@H](O)[C@H]1O",
    "meta_data": {
        "InChI": "InChI=1S/C15H30O6/c1-2-3-4-5-6-7-8-9-20-15-14(19)13(18)12(17)11(10-16)21-15/h11-19H,2-10H2,1H3/t11-,12-,13+,14-,15-/m1/s1",
        "InChIKey": null,
        "Canonical SMILES": "OCC1OC(OCCCCCCCCC)C(O)C(O)C1O",
        "Molecular Formula": "C<sub>15</sub>H<sub>30</sub>O<sub>6</sub>",
        "Molecular Mass": "306.40",
        "Melting Point": "65-118 °C"
    }
}