{
    "cas_no": "13222-26-9",
    "key_name": "2-Chloro-2-methylpropanoyl chloride",
    "cn_name": null,
    "alternate_name": "Propanoyl chloride, 2-chloro-2-methyl-;Propionyl chloride, 2-chloro-2-methyl-;2-Chloro-2-methylpropanoyl chloride;α-Chloroisobutyryl chloride;2-Chloro-2-methylpropionyl chloride;α-Chloroisobutyric acid chloride;2-Chloroisobutyryl chloride",
    "duplicated_cas_no": "",
    "SMILES": "C(C(Cl)=O)(C)(C)Cl",
    "meta_data": {
        "InChI": "InChI=1S/C4H6Cl2O/c1-4(2,6)3(5)7/h1-2H3",
        "InChIKey": null,
        "Canonical SMILES": "O=C(Cl)C(Cl)(C)C",
        "Molecular Formula": "C<sub>4</sub>H<sub>6</sub>Cl<sub>2</sub>O",
        "Molecular Mass": "141.00",
        "Boiling Point": "113-114 °C @ Press: 760 Torr",
        "Density": "1.1802 g/cm³ @ Temp: 25 °C"
    }
}