{
    "cas_no": "1220-83-3",
    "key_name": "Sulfamonomethoxine",
    "cn_name": "磺胺间甲氧嘧啶;N-(6-甲氧基-4-嘧啶基)-4-氨基苯磺酰胺;",
    "alternate_name": "Benzenesulfonamide, 4-amino-<em>N</em>-(6-methoxy-4-pyrimidinyl)-;Sulfanilamide, <em>N</em><sup>1</sup>-(6-methoxy-4-pyrimidinyl)-;4-Amino-<em>N</em>-(6-methoxy-4-pyrimidinyl)benzenesulfonamide;ICI 32525;<em>N</em><sup>1</sup>-(6-Methoxy-4-pyrimidinyl)sulfanilamide;4-Methoxy-6-sulfanilamidopyrimidine;6-Methoxy-4-sulfanilamidopyrimidine;Sulfamonomethoxine;6-Sulfanilamido-4-methoxypyrimidine;4-Sulfanilamido-6-methoxypyrimidine;Daimeton;Sulfamonomethoxin;DJ 1550;DS 36;Ro 4-3476;Duphadin",
    "duplicated_cas_no": "",
    "SMILES": "S(NC=1C=C(OC)N=CN1)(=O)(=O)C2=CC=C(N)C=C2",
    "meta_data": {
        "InChI": "InChI=1S/C11H12N4O3S/c1-18-11-6-10(13-7-14-11)15-19(16,17)9-4-2-8(12)3-5-9/h2-7H,12H2,1H3,(H,13,14,15)",
        "InChIKey": null,
        "Canonical SMILES": "O=S(=O)(NC=1N=CN=C(OC)C1)C2=CC=C(N)C=C2",
        "Molecular Formula": "C<sub>11</sub>H<sub>12</sub>N<sub>4</sub>O<sub>3</sub>S",
        "Molecular Mass": "280.30",
        "Melting Point": "200-202 °C"
    }
}