{
    "cas_no": "41757-95-3",
    "key_name": "1-(2,3,5,6,8,9,11,12-Octahydro-1,4,7,10,13-benzopentaoxacyclopentadecin-15-yl)ethanone",
    "cn_name": "4-乙酰基苯并-15-冠-5-醚;",
    "alternate_name": "Ethanone, 1-(2,3,5,6,8,9,11,12-octahydro-1,4,7,10,13-benzopentaoxacyclopentadecin-15-yl)-;1,4,7,10,13-Benzopentaoxacyclopentadecin, ethanone deriv.;1-(2,3,5,6,8,9,11,12-Octahydro-1,4,7,10,13-benzopentaoxacyclopentadecin-15-yl)ethanone;2,3-(4′-Acetobenzo)-1,4,7,10,13-pentaoxacyclopentadeca-2-ene;4′-Acetobenzo-15-crown-5;15-Acetylbenzo-[15-crown-5];4′-Acetylbenzo-15-crown-5;1-(6,7,9,10,12,13,15,16-Octahydro-5,8,11,14,17-pentaoxabenzocyclopentadecen-2-yl)ethanone;1-(2,5,8,11,14-Pentaoxabicyclo[13.4.0]nonadeca-1(15),16,18-trien-17-yl)ethanone",
    "duplicated_cas_no": "",
    "SMILES": "C(C)(=O)C=1C=C2C(=CC1)OCCOCCOCCOCCO2",
    "meta_data": {
        "InChI": "InChI=1S/C16H22O6/c1-13(17)14-2-3-15-16(12-14)22-11-9-20-7-5-18-4-6-19-8-10-21-15/h2-3,12H,4-11H2,1H3",
        "InChIKey": null,
        "Canonical SMILES": "O=C(C1=CC=C2OCCOCCOCCOCCOC2=C1)C",
        "Molecular Formula": "C<sub>16</sub>H<sub>22</sub>O<sub>6</sub>",
        "Molecular Mass": "310.34",
        "Melting Point": "95-96.5 °C"
    }
}