{
    "cas_no": "13603-44-6",
    "key_name": "2,6-Dimethyl-4-pyridinol",
    "cn_name": null,
    "alternate_name": "4-Pyridinol, 2,6-dimethyl-;2,6-Dimethyl-4-pyridinol;4-Hydroxy-2,6-dimethylpyridine;4-Hydroxy-2,6-lutidine;2,6-Dimethyl-4-hydroxypyridine;NSC 111932",
    "duplicated_cas_no": "",
    "SMILES": "OC=1C=C(C)N=C(C)C1",
    "meta_data": {
        "InChI": "InChI=1S/C7H9NO/c1-5-3-7(9)4-6(2)8-5/h3-4H,1-2H3,(H,8,9)",
        "InChIKey": null,
        "Canonical SMILES": "OC=1C=C(N=C(C1)C)C",
        "Molecular Formula": "C<sub>7</sub>H<sub>9</sub>NO",
        "Molecular Mass": "123.15",
        "Boiling Point": "220-225 °C @ Press: 30 Torr",
        "Melting Point": "225 °C"
    }
}