{
    "cas_no": "4947-89-1",
    "key_name": "<em>N</em>-(3-Chlorophenyl)thiourea",
    "cn_name": "3-氯苯硫脲;3-氯苯(基)硫脲;",
    "alternate_name": "Thiourea, <em>N</em>-(3-chlorophenyl)-;Urea, 1-(<em>m</em>-chlorophenyl)-2-thio-;Thiourea, (3-chlorophenyl)-;<em>N</em>-(3-Chlorophenyl)thiourea;(<em>m</em>-Chlorophenyl)thiourea;1-(<em>m</em>-Chlorophenyl)thiourea;3-Chlorophenylthiourea;1-(3-Chlorophenyl)thiourea;m-Chlorophenylthiourea;NSC 164965",
    "duplicated_cas_no": "",
    "SMILES": "N(C(N)=S)C1=CC(Cl)=CC=C1",
    "meta_data": {
        "InChI": "InChI=1S/C7H7ClN2S/c8-5-2-1-3-6(4-5)10-7(9)11/h1-4H,(H3,9,10,11)",
        "InChIKey": null,
        "Canonical SMILES": "S=C(N)NC=1C=CC=C(Cl)C1",
        "Molecular Formula": "C<sub>7</sub>H<sub>7</sub>ClN<sub>2</sub>S",
        "Molecular Mass": "186.66",
        "Melting Point": "138.5-139.0 °C"
    }
}