{
    "cas_no": "1156-92-9",
    "key_name": "4-Androstenediol",
    "cn_name": "4-雄烯二醇;",
    "alternate_name": "Androst-4-ene-3,17-diol, (3β,17β)-;Androst-4-ene-3β,17β-diol;(3β,17β)-Androst-4-ene-3,17-diol;3β,17β-Dihydroxy-4-androstene;4-Androstenediol;Δ<sup>4</sup>-Androstene-3β,17β-diol;NSC 12458",
    "duplicated_cas_no": "1050678-99-3",
    "SMILES": "C[C@@]12[C@@]3([C@]([C@]4([C@](C)(CC3)[C@@H](O)CC4)[H])(CCC1=C[C@@H](O)CC2)[H])[H]",
    "meta_data": {
        "InChI": "InChI=1S/C19H30O2/c1-18-9-7-13(20)11-12(18)3-4-14-15-5-6-17(21)19(15,2)10-8-16(14)18/h11,13-17,20-21H,3-10H2,1-2H3/t13-,14-,15-,16-,17-,18-,19-/m0/s1",
        "InChIKey": null,
        "Canonical SMILES": "OC1C=C2CCC3C(CCC4(C)C(O)CCC34)C2(C)CC1",
        "Molecular Formula": "C<sub>19</sub>H<sub>30</sub>O<sub>2</sub>",
        "Molecular Mass": "290.44",
        "Melting Point": "155.5 °C"
    }
}