{
    "cas_no": "120068-36-2",
    "key_name": "Fipronil sulfone",
    "cn_name": null,
    "alternate_name": "1<em>H</em>-Pyrazole-3-carbonitrile, 5-amino-1-[2,6-dichloro-4-(trifluoromethyl)phenyl]-4-[(trifluoromethyl)sulfonyl]-;5-Amino-1-[2,6-dichloro-4-(trifluoromethyl)phenyl]-4-[(trifluoromethyl)sulfonyl]-1<em>H</em>-pyrazole-3-carbonitrile;MB 46136;5-Amino-1-(2,6-dichloro-4-trifluoromethylphenyl)-3-cyano-4-trifluoromethylsulfonylpyrazole;5-Amino-1-[2,6-Dichloro-4-(trifluoromethyl)phenyl]-4-(trifluoromethylsulfonyl)pyrazole-3-carbonitrile;Fipronil sulfone;Fipronil metabolite 46136",
    "duplicated_cas_no": "1355680-98-6",
    "SMILES": "S(C(F)(F)F)(=O)(=O)C=1C(C#N)=NN(C1N)C2=C(Cl)C=C(C(F)(F)F)C=C2Cl",
    "meta_data": {
        "InChI": "InChI=1S/C12H4Cl2F6N4O2S/c13-5-1-4(11(15,16)17)2-6(14)8(5)24-10(22)9(7(3-21)23-24)27(25,26)12(18,19)20/h1-2H,22H2",
        "InChIKey": null,
        "Canonical SMILES": "N#CC1=NN(C(N)=C1S(=O)(=O)C(F)(F)F)C2=C(Cl)C=C(C=C2Cl)C(F)(F)F",
        "Molecular Formula": "C<sub>12</sub>H<sub>4</sub>Cl<sub>2</sub>F<sub>6</sub>N<sub>4</sub>O<sub>2</sub>S",
        "Molecular Mass": "453.15",
        "Melting Point": "205-206 °C"
    }
}