{
    "cas_no": "51015-29-3",
    "key_name": "6-Methyl-1-tetralone",
    "cn_name": null,
    "alternate_name": "1(2<em>H</em>)-Naphthalenone, 3,4-dihydro-6-methyl-;3,4-Dihydro-6-methyl-1(2<em>H</em>)-naphthalenone;6-Methyl-α-tetralone;6-Methyl-1-tetralone;6-Methyl-3,4-dihydronaphthalen-1(2<em>H</em>)-one",
    "duplicated_cas_no": "",
    "SMILES": "O=C1C=2C(=CC(C)=CC2)CCC1",
    "meta_data": {
        "InChI": "InChI=1S/C11H12O/c1-8-5-6-10-9(7-8)3-2-4-11(10)12/h5-7H,2-4H2,1H3",
        "InChIKey": null,
        "Canonical SMILES": "O=C1C2=CC=C(C=C2CCC1)C",
        "Molecular Formula": "C<sub>11</sub>H<sub>12</sub>O",
        "Molecular Mass": "160.21",
        "Boiling Point": "129-132 °C"
    }
}