{
    "cas_no": "930-62-1",
    "key_name": "2,4-Dimethylimidazole",
    "cn_name": "2,4-二甲基咪唑;",
    "alternate_name": "1<em>H</em>-Imidazole, 2,5-dimethyl-;Imidazole, 2,4-dimethyl-;1<em>H</em>-Imidazole, 2,4-dimethyl-;Imidazole, 2,4(<em>or</em> 2,5)-dimethyl-;2,5-Dimethyl-1<em>H</em>-imidazole;2,4-Dimethylimidazole;2,5-Dimethylimidazole;2,4-Dimethyl-1<em>H</em>-imidazole;NSC 13192;2-Methyl-4-methylimidazole",
    "duplicated_cas_no": "88054-17-5",
    "SMILES": "CC=1NC(C)=NC1",
    "meta_data": {
        "InChI": "InChI=1S/C5H8N2/c1-4-3-6-5(2)7-4/h3H,1-2H3,(H,6,7)",
        "InChIKey": null,
        "Canonical SMILES": "N=1C=C(NC1C)C",
        "Molecular Formula": "C<sub>5</sub>H<sub>8</sub>N<sub>2</sub>",
        "Molecular Mass": "96.13",
        "Boiling Point": "&gt;145 °C @ Press: 14 Torr",
        "Melting Point": "137-142 °C"
    }
}