{
    "cas_no": "62613-81-4",
    "key_name": "1-Pyrrolidineacetic acid, 4-hydroxy-2-oxo-, ethyl ester",
    "cn_name": null,
    "alternate_name": "1-Pyrrolidineacetic acid, 4-hydroxy-2-oxo-, ethyl ester;Ethyl 4-hydroxy-2-oxo-1-pyrrolidineacetate",
    "duplicated_cas_no": "68567-96-4",
    "SMILES": "C(C(OCC)=O)N1CC(O)CC1=O",
    "meta_data": {
        "InChI": "InChI=1S/C8H13NO4/c1-2-13-8(12)5-9-4-6(10)3-7(9)11/h6,10H,2-5H2,1H3",
        "InChIKey": null,
        "Canonical SMILES": "O=C(OCC)CN1C(=O)CC(O)C1",
        "Molecular Formula": "C<sub>8</sub>H<sub>13</sub>NO<sub>4</sub>",
        "Molecular Mass": "187.19",
        "Boiling Point": "180 °C @ Press: 0.8 Torr"
    }
}