{
    "cas_no": "30608-62-9",
    "key_name": "(2<em>S</em>)-2-Ethyloxirane",
    "cn_name": null,
    "alternate_name": "Oxirane, 2-ethyl-, (2<em>S</em>)-;Butane, 1,2-epoxy-, (<em>S</em>)-(-)-;Oxirane, ethyl-, (<em>S</em>)-;Oxirane, ethyl-, (2<em>S</em>)-;(2<em>S</em>)-2-Ethyloxirane;(<em>S</em>)-1,2-Epoxybutane;(<em>S</em>)-Ethyloxirane;(<em>S</em>)-1-Butene oxide;(<em>S</em>)-2-Ethyloxirane;(2S)-2-Ethyloxirane",
    "duplicated_cas_no": "",
    "SMILES": "C(C)[C@H]1CO1",
    "meta_data": {
        "InChI": "InChI=1S/C4H8O/c1-2-4-3-5-4/h4H,2-3H2,1H3/t4-/m0/s1",
        "InChIKey": null,
        "Canonical SMILES": "O1CC1CC",
        "Molecular Formula": "C<sub>4</sub>H<sub>8</sub>O",
        "Molecular Mass": "72.11",
        "Boiling Point": "56-58 °C @ Press: 760 Torr"
    }
}