{
    "cas_no": "406-58-6",
    "key_name": "1,1,1,3,3-Pentafluorobutane",
    "cn_name": "1,1,1,3,3-五氟丁烷;",
    "alternate_name": "Butane, 1,1,1,3,3-pentafluoro-;1,1,1,3,3-Pentafluorobutane;2,2,4,4,4-Pentafluorobutane;R 365;HFC 365;HFC 365mfc;Solkane 365mfc;R 365mfc;Solkane 365;HFO 365mfc;Forane 365mfc;365mfc;H 33737;Solkane HFC 365mfc;HFC 365mfe;HCFC 365mfc;365fa",
    "duplicated_cas_no": "144377-42-4",
    "SMILES": "C(C(C)(F)F)C(F)(F)F",
    "meta_data": {
        "InChI": "InChI=1S/C4H5F5/c1-3(5,6)2-4(7,8)9/h2H2,1H3",
        "InChIKey": null,
        "Canonical SMILES": "FC(F)(F)CC(F)(F)C",
        "Molecular Formula": "C<sub>4</sub>H<sub>5</sub>F<sub>5</sub>",
        "Molecular Mass": "148.07",
        "Boiling Point": "40 °C",
        "Density": "1.2666 g/cm³ @ Temp: 20 °C"
    }
}