{
    "cas_no": "5409-60-9",
    "key_name": "4,4-Diphenyl-2-butanone",
    "cn_name": "4,4\"-二苯基-2-丁酮;4,4-二苯基丁酮;",
    "alternate_name": "2-Butanone, 4,4-diphenyl-;4,4-Diphenyl-2-butanone;1,1-Diphenyl-3-butanone;NSC 12496",
    "duplicated_cas_no": "",
    "SMILES": "C(CC(C)=O)(C1=CC=CC=C1)C2=CC=CC=C2",
    "meta_data": {
        "InChI": "InChI=1S/C16H16O/c1-13(17)12-16(14-8-4-2-5-9-14)15-10-6-3-7-11-15/h2-11,16H,12H2,1H3",
        "InChIKey": null,
        "Canonical SMILES": "O=C(C)CC(C=1C=CC=CC1)C=2C=CC=CC2",
        "Molecular Formula": "C<sub>16</sub>H<sub>16</sub>O",
        "Molecular Mass": "224.30",
        "Boiling Point": "164.5-168 °C @ Press: 4-5 Torr",
        "Melting Point": "170-171 °C"
    }
}