{
    "cas_no": "939-97-9",
    "key_name": "4-<em>tert</em>-Butylbenzaldehyde",
    "cn_name": "对叔丁基苯甲醛;",
    "alternate_name": "Benzaldehyde, 4-(1,1-dimethylethyl)-;Benzaldehyde, <em>p</em>-<em>tert</em>-butyl-;4-(1,1-Dimethylethyl)benzaldehyde;<em>p</em>-<em>tert</em>-Butylbenzaldehyde;4-<em>tert</em>-Butylbenzaldehyde;<em>para</em>-<em>tert</em>-Butylbenzaldehyde",
    "duplicated_cas_no": "34032-41-2",
    "SMILES": "C(C)(C)(C)C1=CC=C(C=O)C=C1",
    "meta_data": {
        "InChI": "InChI=1S/C11H14O/c1-11(2,3)10-6-4-9(8-12)5-7-10/h4-8H,1-3H3",
        "InChIKey": null,
        "Canonical SMILES": "O=CC1=CC=C(C=C1)C(C)(C)C",
        "Molecular Formula": "C<sub>11</sub>H<sub>14</sub>O",
        "Molecular Mass": "162.23",
        "Boiling Point": "123-125 °C @ Press: 20 Torr",
        "Melting Point": "245-246 °C",
        "Density": "0.9733 g/cm³ @ Temp: 20 °C"
    }
}