{
    "cas_no": "43071-52-9",
    "key_name": "1-(7-Methoxy-2-benzofuranyl)ethanone",
    "cn_name": null,
    "alternate_name": "Ethanone, 1-(7-methoxy-2-benzofuranyl)-;1-(7-Methoxy-2-benzofuranyl)ethanone;2-Acetyl-7-methoxybenzofuran;7-Methoxy-2-benzofuranyl methyl ketone;2-Acetyl-7-methoxybenzo[<em>b</em>]furan;1-(7-Methoxybenzofuran-2-yl)ethanone;1-(7-Methoxy-1-benzofuran-2-yl)ethan-1-one;1-(7-Methoxy-1-benzofuran-2-yl)ethanone",
    "duplicated_cas_no": "",
    "SMILES": "O(C)C1=C2C(C=C(C(C)=O)O2)=CC=C1",
    "meta_data": {
        "InChI": "InChI=1S/C11H10O3/c1-7(12)10-6-8-4-3-5-9(13-2)11(8)14-10/h3-6H,1-2H3",
        "InChIKey": null,
        "Canonical SMILES": "O=C(C=1OC=2C(OC)=CC=CC2C1)C",
        "Molecular Formula": "C<sub>11</sub>H<sub>10</sub>O<sub>3</sub>",
        "Molecular Mass": "190.20",
        "Boiling Point": "176-180 °C @ Press: 15 Torr",
        "Melting Point": "92 °C"
    }
}