{
    "cas_no": "10061-02-6",
    "key_name": "<em>trans</em>-1,3-Dichloropropene",
    "cn_name": null,
    "alternate_name": "1-Propene, 1,3-dichloro-, (1<em>E</em>)-;Propene, 1,3-dichloro-, (<em>E</em>)-;1-Propene, 1,3-dichloro-, (<em>E</em>)-;(1<em>E</em>)-1,3-Dichloro-1-propene;<em>trans</em>-1,3-Dichloropropene;<em>trans</em>-1,3-Dichloro-1-propene;<em>trans</em>-1,3-Dichloropropylene;(<em>E</em>)-1,3-Dichloropropene;(<em>E</em>)-1,3-Dichloro-1-propene;<em>trans</em>-3-Chloroallyl chloride;<em>trans</em>-Telone",
    "duplicated_cas_no": "",
    "SMILES": "C(\\CCl)=C/Cl",
    "meta_data": {
        "InChI": "InChI=1S/C3H4Cl2/c4-2-1-3-5/h1-2H,3H2/b2-1+",
        "InChIKey": null,
        "Canonical SMILES": "ClC=CCCl",
        "Molecular Formula": "C<sub>3</sub>H<sub>4</sub>Cl<sub>2</sub>",
        "Molecular Mass": "110.97",
        "Boiling Point": "112 °C",
        "Density": "1.224 g/cm³ @ Temp: 20 °C"
    }
}