{
    "cas_no": "17524-05-9",
    "key_name": "Bis(acetylacetonato)dioxomolybdenum",
    "cn_name": "乙酰丙酮钼;四乙酰丙酮合钼;",
    "alternate_name": "Molybdenum, dioxobis(2,4-pentanedionato-κ<em>O</em><sup>2</sup>,κ<em>O</em><sup>4</sup>)-, (<em>OC</em>-6-21)-;Molybdenum, dioxobis(2,4-pentanedionato)-;Molybdenum, dioxobis(2,4-pentanedionato-<em>O</em>,<em>O</em>′)-, (<em>OC</em>-6-21)-;Molybdenum, dioxobis(2,4-pentanedionato-κ<em>O</em>,κ<em>O</em>′)-, (<em>OC</em>-6-21)-;(<em>OC</em>-6-21)-Dioxobis(2,4-pentanedionato-κ<em>O</em><sup>2</sup>,κ<em>O</em><sup>4</sup>)molybdenum;Bis(acetylacetonato)molybdenum dioxide;Molybdenum dioxide bis(acetylacetonate);Dioxobis(2,4-pentanedionato)molybdenum;Dioxomolybdenum(VI) acetylacetonate;Bis(acetylacetonato)dioxomolybdenum;Molybdenyl acetylacetonate;Molybdenum dioxydiacetylacetonate;Bis(acetoacetonato)dioxomolybdenum;Dioxobis(2,4-pentanedionato-<em>O</em>,<em>O</em>′)molybdenum;Dioxobis(2,4-pentanedionato)molybdenum(VI);<em>cis</em>-Dioxobis(2,4-pentanedionato)molybdenum;<em>cis</em>-Bis(acetylacetonato)dioxomolybdenum;Dioxomolybdenum bis(acetylacetonate);Bis(acetylacetonate)dioxomolybdenum;NSC 52176;Dioxomolybdenum(VI) bis(acetylacetonate);Bis(acetylacetonato)dioxomolybdenum(VI);Bis(2,4-pentanedionato)dioxomolybdenum;Molybdenum diacetylacetonate dioxide",
    "duplicated_cas_no": "21884-95-7;29794-96-5;65073-75-8;2758665-46-0",
    "SMILES": "O=[Mo+2]12(=O)(O=C(C)[CH-]C(C)=O1)O=C(C)[CH-]C(C)=O2",
    "meta_data": {
        "InChI": "InChI=1S/2C5H7O2.Mo.2O/c2*1-4(6)3-5(2)7;;;/h2*3H,1-2H3;;;/q2*-1;+2;;",
        "InChIKey": null,
        "Canonical SMILES": "O=[Mo+2]12(=O)(O=C([CH-]C(=O1)C)C)O=C([CH-]C(=O2)C)C",
        "Molecular Formula": "C<sub>10</sub>H<sub>14</sub>MoO<sub>6</sub>",
        "Molecular Mass": "",
        "Melting Point": "181 °C (decomp)",
        "Density": "1.640 g/cm³"
    }
}