{
    "cas_no": "5429-28-7",
    "key_name": "4-(Diethylamino)benzoic acid",
    "cn_name": null,
    "alternate_name": "Benzoic acid, 4-(diethylamino)-;Benzoic acid, <em>p</em>-(diethylamino)-;4-(Diethylamino)benzoic acid;<em>p</em>-(Diethylamino)benzoic acid;<em>p</em>-<em>N</em>,<em>N</em>-Diethylaminobenzoic acid;4-<em>N</em>,<em>N</em>-Diethylaminobenzoic acid;NSC 14115",
    "duplicated_cas_no": "",
    "SMILES": "N(CC)(CC)C1=CC=C(C(O)=O)C=C1",
    "meta_data": {
        "InChI": "InChI=1S/C11H15NO2/c1-3-12(4-2)10-7-5-9(6-8-10)11(13)14/h5-8H,3-4H2,1-2H3,(H,13,14)",
        "InChIKey": null,
        "Canonical SMILES": "O=C(O)C1=CC=C(C=C1)N(CC)CC",
        "Molecular Formula": "C<sub>11</sub>H<sub>15</sub>NO<sub>2</sub>",
        "Molecular Mass": "193.24",
        "Melting Point": "193 °C"
    }
}