{
    "cas_no": "141-59-3",
    "key_name": "2,4,4-Trimethyl-2-pentanethiol",
    "cn_name": "1,1,3,3-四甲基-1-丁硫醇;1,1,3,3-四甲基-1-丁硫醇;",
    "alternate_name": "2-Pentanethiol, 2,4,4-trimethyl-;2,4,4-Trimethyl-2-pentanethiol;<em>tert</em>-Octyl mercaptan;<em>tert</em>-Octylthiol;<em>tert</em>-Octanethiol",
    "duplicated_cas_no": "126977-99-9",
    "SMILES": "C(C(C)(C)C)C(C)(C)S",
    "meta_data": {
        "InChI": "InChI=1S/C8H18S/c1-7(2,3)6-8(4,5)9/h9H,6H2,1-5H3",
        "InChIKey": null,
        "Canonical SMILES": "SC(C)(C)CC(C)(C)C",
        "Molecular Formula": "C<sub>8</sub>H<sub>18</sub>S",
        "Molecular Mass": "146.29",
        "Boiling Point": "154-166 °C",
        "Melting Point": "-74 °C",
        "Density": "0.848 g/cm³"
    }
}