{
    "cas_no": "35578-47-3",
    "key_name": "4,4′-Dibromobenzil",
    "cn_name": "4,4\"-二溴苯偶酰;4,4\"-二溴联苯酰;Bis(4-bromophenyl)-ethanedion;",
    "alternate_name": "1,2-Ethanedione, 1,2-bis(4-bromophenyl)-;Ethanedione, bis(4-bromophenyl)-;Benzil, 4,4′-dibromo-;1,2-Bis(4-bromophenyl)-1,2-ethanedione;<em>p</em>,<em>p</em>′-Dibromobenzil;4,4′-Dibromobenzil;NSC 74075;Bis(4-bromophenyl)ethanedione;1,2-Bis(4-bromophenyl)ethandione",
    "duplicated_cas_no": "1056020-48-4;1056020-50-8",
    "SMILES": "C(C(=O)C1=CC=C(Br)C=C1)(=O)C2=CC=C(Br)C=C2",
    "meta_data": {
        "InChI": "InChI=1S/C14H8Br2O2/c15-11-5-1-9(2-6-11)13(17)14(18)10-3-7-12(16)8-4-10/h1-8H",
        "InChIKey": null,
        "Canonical SMILES": "O=C(C(=O)C1=CC=C(Br)C=C1)C2=CC=C(Br)C=C2",
        "Molecular Formula": "C<sub>14</sub>H<sub>8</sub>Br<sub>2</sub>O<sub>2</sub>",
        "Molecular Mass": "368.02",
        "Melting Point": "228-229 °C"
    }
}