{
    "cas_no": "16357-59-8",
    "key_name": "2-Ethoxy-1-(ethoxycarbonyl)-1,2-dihydroquinoline",
    "cn_name": "2-乙氧基-1-乙氧碳酰基-1,2-二氢喹啉;",
    "alternate_name": "1(2<em>H</em>)-Quinolinecarboxylic acid, 2-ethoxy-, ethyl ester;<em>N</em>-(Ethoxycarbonyl)-2-ethoxy-1,2-dihydroquinoline;EEDQ;1-(Ethoxycarbonyl)-2-ethoxy-1,2-dihydroquinoline;2-Ethoxy-<em>N</em>-(ethoxycarbonyl)-1,2-dihydroquinoline;2-Ethoxy-1-(ethoxycarbonyl)-1,2-dihydroquinoline;<em>N</em>-Carbethoxy-2-ethoxy-1,2-dihydroquinoline;2-Ethoxy-1(2<em>H</em>)-quinolinecarboxylic acid ethyl ester;Ethyl 2-ethoxy-1(2<em>H</em>)-quinolinecarboxylate;NSC 147831",
    "duplicated_cas_no": "",
    "SMILES": "C(OCC)(=O)N1C=2C(C=CC1OCC)=CC=CC2",
    "meta_data": {
        "InChI": "InChI=1S/C14H17NO3/c1-3-17-13-10-9-11-7-5-6-8-12(11)15(13)14(16)18-4-2/h5-10,13H,3-4H2,1-2H3",
        "InChIKey": null,
        "Canonical SMILES": "O=C(OCC)N1C=2C=CC=CC2C=CC1OCC",
        "Molecular Formula": "C<sub>14</sub>H<sub>17</sub>NO<sub>3</sub>",
        "Molecular Mass": "247.29",
        "Boiling Point": "125-128 °C @ Press: 0.1 Torr",
        "Melting Point": "56.5 °C"
    }
}