{
    "cas_no": "9004-07-3",
    "key_name": "Chymotrypsin",
    "cn_name": null,
    "alternate_name": "Chymotrypsin;Alpha-chymar ophth;Avazyme;Chymar;Chymotest;Enzeon;Quimar;Quimotrase;α-Chymotrypsin;Chymotrypsin A;E.C. 3.4.4.6;E.C. 3.4.21.1;E.C. 3.4.4.5;EC 3.4.4.5;EC 3.4.21.1;Alpha chymar;α-Chymotrypsin A;γ-Chymotrypsin A;Chymotrypsin A<sub>α</sub>;Chymotrypsin P;α1-Chymotrypsin;α-Chymostrypsin;Catarase;Zolyse;Benzyme;EC 3.4.4.6;C4129-1G;MeSH ID: D002918",
    "duplicated_cas_no": "8049-46-5;9025-29-0;9062-30-0;9067-81-6",
    "SMILES": "",
    "meta_data": {
        "InChI": "",
        "InChIKey": null,
        "Canonical SMILES": "",
        "Molecular Formula": "Unspecified",
        "Molecular Mass": "",
        "Melting Point": "200 °C"
    }
}