{
    "uri": "substance/pt/9004073",
    "rn": "9004-07-3",
    "name": "Chymotrypsin",
    "images": [],
    "inchi": "",
    "inchiKey": "",
    "smile": "",
    "canonicalSmile": "",
    "molecularFormula": "Unspecified",
    "molecularMass": "",
    "experimentalProperties": [
        {
            "name": "Melting Point",
            "property": "200 °C",
            "sourceNumber": 1
        }
    ],
    "propertyCitations": [
        {
            "docUri": "document/pt/patent/5254627",
            "sourceNumber": 1,
            "source": "Kasahara, Nobuo; JP49000492, A, 1974, CAplus"
        }
    ],
    "synonyms": [
        "Chymotrypsin",
        "Alpha-chymar ophth",
        "Avazyme",
        "Chymar",
        "Chymotest",
        "Enzeon",
        "Quimar",
        "Quimotrase",
        "α-Chymotrypsin",
        "Chymotrypsin A",
        "E.C. 3.4.4.6",
        "E.C. 3.4.21.1",
        "E.C. 3.4.4.5",
        "EC 3.4.4.5",
        "EC 3.4.21.1",
        "Alpha chymar",
        "α-Chymotrypsin A",
        "γ-Chymotrypsin A",
        "Chymotrypsin A<sub>α</sub>",
        "Chymotrypsin P",
        "α1-Chymotrypsin",
        "α-Chymostrypsin",
        "Catarase",
        "Zolyse",
        "Benzyme",
        "EC 3.4.4.6",
        "C4129-1G",
        "MeSH ID: D002918"
    ],
    "replacedRns": [
        "8049-46-5",
        "9025-29-0",
        "9062-30-0",
        "9067-81-6"
    ],
    "hasMolfile": false,
    "source": "https://commonchemistry.cas.org/detail?cas_rn=9004-07-3"
}