{
    "cas_no": "103-11-7",
    "key_name": "2-Ethylhexyl acrylate",
    "cn_name": "丙烯酸2-乙基己酯;丙烯酸辛酯;丙烯酸异辛酯;",
    "alternate_name": "2-Propenoic acid, 2-ethylhexyl ester;Acrylic acid, 2-ethylhexyl ester;2-Ethylhexyl acrylate;2-Ethylhexyl 2-propenoate;NSC 4803;2EHA;Norsocryl 2-EHA;EHA;JR 910;E 108592",
    "duplicated_cas_no": "45016-65-7;78733-32-1;84948-57-2;93460-77-6;126830-02-2;1329996-89-5;1453489-97-8",
    "SMILES": "C(COC(C=C)=O)(CCCC)CC",
    "meta_data": {
        "InChI": "InChI=1S/C11H20O2/c1-4-7-8-10(5-2)9-13-11(12)6-3/h6,10H,3-5,7-9H2,1-2H3",
        "InChIKey": null,
        "Canonical SMILES": "O=C(OCC(CC)CCCC)C=C",
        "Molecular Formula": "C<sub>11</sub>H<sub>20</sub>O<sub>2</sub>",
        "Molecular Mass": "184.28",
        "Boiling Point": "214-218 °C",
        "Melting Point": "-90 °C",
        "Density": "0.880 g/cm³ @ Temp: 25 °C"
    }
}