{
    "cas_no": "115-18-4",
    "key_name": "2-Methyl-3-buten-2-ol",
    "cn_name": "2-甲基-3-丁烯-2-醇;",
    "alternate_name": "3-Buten-2-ol, 2-methyl-;2-Methyl-3-buten-2-ol;Dimethylvinylcarbinol;α,α-Dimethylallyl alcohol;Dimethylvinylmethanol;1,1-Dimethyl-2-propen-1-ol;2-Hydroxy-2-methyl-3-butene;2-Methyl-2-hydroxy-3-butene;3-Methyl-1-buten-3-ol;Vinyldimethylcarbinol;3-Hydroxy-3-methyl-1-butene;2-Methyl-3-buten-2-yl alcohol;1,1-Dimethylallyl alcohol;3-Hydroxy-3-methylbutene;3-Methyl-3-hydroxybutene;NSC 15977;1,1-Dimethyl-2-propenyl alcohol;2-Methylbut-3-en-2-ol",
    "duplicated_cas_no": "",
    "SMILES": "C(C=C)(C)(C)O",
    "meta_data": {
        "InChI": "InChI=1S/C5H10O/c1-4-5(2,3)6/h4,6H,1H2,2-3H3",
        "InChIKey": null,
        "Canonical SMILES": "OC(C=C)(C)C",
        "Molecular Formula": "C<sub>5</sub>H<sub>10</sub>O",
        "Molecular Mass": "86.13",
        "Boiling Point": "97 °C",
        "Melting Point": "-28 °C",
        "Density": "0.8279 g/cm³ @ Temp: 16 °C"
    }
}