{
    "cas_no": "3317-67-7",
    "key_name": "Cobalt phthalocyanine",
    "cn_name": null,
    "alternate_name": "Cobalt, [29<em>H</em>,31<em>H</em>-phthalocyaninato(2-)-κ<em>N</em><sup>29</sup>,κ<em>N</em><sup>30</sup>,κ<em>N</em><sup>31</sup>,κ<em>N</em><sup>32</sup>]-, (<em>SP</em>-4-1)-;Cobalt, [phthalocyaninato(2-)]-;Cobalt, [29<em>H</em>,31<em>H</em>-phthalocyaninato(2-)-<em>N</em><sup>29</sup>,<em>N</em><sup>30</sup>,<em>N</em><sup>31</sup>,<em>N</em><sup>32</sup>]-, (<em>SP</em>-4-1)-;Phthalocyanine, cobalt deriv.;29<em>H</em>,31<em>H</em>-Phthalocyanine, cobalt complex;29<em>H</em>,31<em>H</em>-Phthalocyanine, cobalt deriv.;(<em>SP</em>-4-1)-[29<em>H</em>,31<em>H</em>-Phthalocyaninato(2-)-κ<em>N</em><sup>29</sup>,κ<em>N</em><sup>30</sup>,κ<em>N</em><sup>31</sup>,κ<em>N</em><sup>32</sup>]cobalt;Cobalt phthalocyanine;Cobalt phthalocyanin;Cobalt(II) phthalocyanine;[Phthalocyaninato(2-)]cobalt;Phthalocyaninatocobalt(II);Cobaltous phthalocyanine;Cobalt(2+) phthalocyanine;Phthalocyanine cobalt complex;Phthalocyanine cobalt;C.I. 74160:2;C.I. Pigment Blue 75;Pigment Blue 75;Sanyo O 270;O 270;Chromofine Blue 5000P;KJB 001;NSC 187643;[29<em>H</em>,31<em>H</em>-Phthalocyaninato(2-)-κ<em>N</em><sup>29</sup>,κ<em>N</em><sup>30</sup>,κ<em>N</em><sup>31</sup>,κ<em>N</em><sup>32</sup>]cobalt;Cobalt(2+) phthalocyaninate;Cobalt Phthalocyanine Blue",
    "duplicated_cas_no": "18616-48-3;70227-96-2",
    "SMILES": "[Co+2]123[N-]4C=5C=6C(C4=NC7=[N]1C(=NC=8[N-]2C(=C9C8C=CC=C9)N=C%10[N]3=C(N5)C=%11C%10=CC=CC%11)C=%12C7=CC=CC%12)=CC=CC6",
    "meta_data": {
        "InChI": "InChI=1S/C32H16N8.Co/c1-2-10-18-17(9-1)25-33-26(18)38-28-21-13-5-6-14-22(21)30(35-28)40-32-24-16-8-7-15-23(24)31(36-32)39-29-20-12-4-3-11-19(20)27(34-29)37-25;/h1-16H;/q-2;+2",
        "InChIKey": null,
        "Canonical SMILES": "N=1C=2C=3C=CC=CC3C4=NC5=C6C=CC=CC6=C7N=C8C=9C=CC=CC9C=%10N=C%11C=%12C=CC=CC%12C1[N-]%11[Co+2]([N]24)([N]%108)[N-]57",
        "Molecular Formula": "C<sub>32</sub>H<sub>16</sub>CoN<sub>8</sub>",
        "Molecular Mass": "",
        "Melting Point": "&gt;300 °C",
        "Density": "1.69 g/cm³"
    }
}