{
    "cas_no": "7584-05-6",
    "key_name": "3-Methyl-4-pyridinecarbonitrile",
    "cn_name": null,
    "alternate_name": "4-Pyridinecarbonitrile, 3-methyl-;Isonicotinonitrile, 3-methyl-;3-Methyl-4-pyridinecarbonitrile;4-Cyano-3-methylpyridine;3-Methyl-4-cyanopyridine;4-Cyano-3-picoline;3-Methylisonicotinonitrile",
    "duplicated_cas_no": "",
    "SMILES": "C(#N)C=1C(C)=CN=CC1",
    "meta_data": {
        "InChI": "InChI=1S/C7H6N2/c1-6-5-9-3-2-7(6)4-8/h2-3,5H,1H3",
        "InChIKey": null,
        "Canonical SMILES": "N#CC=1C=CN=CC1C",
        "Molecular Formula": "C<sub>7</sub>H<sub>6</sub>N<sub>2</sub>",
        "Molecular Mass": "118.14",
        "Boiling Point": "90-100 °C @ Press: 14 Torr",
        "Melting Point": "51-52 °C"
    }
}