{
    "cas_no": "20225-24-5",
    "key_name": "2-Ethylpentanoic acid",
    "cn_name": null,
    "alternate_name": "Pentanoic acid, 2-ethyl-;Valeric acid, 2-ethyl-;2-Ethylpentanoic acid;3-Hexanecarboxylic acid;α-Ethylvaleric acid;2-Ethylvaleric acid",
    "duplicated_cas_no": "116908-83-9",
    "SMILES": "C(CCC)(C(O)=O)CC",
    "meta_data": {
        "InChI": "InChI=1S/C7H14O2/c1-3-5-6(4-2)7(8)9/h6H,3-5H2,1-2H3,(H,8,9)",
        "InChIKey": null,
        "Canonical SMILES": "O=C(O)C(CC)CCC",
        "Molecular Formula": "C<sub>7</sub>H<sub>14</sub>O<sub>2</sub>",
        "Molecular Mass": "130.18",
        "Boiling Point": "113 °C @ Press: 17 Torr",
        "Density": "0.911 g/cm³ @ Temp: 27 °C"
    }
}