{
    "cas_no": "346599-63-1",
    "key_name": "4-Chloro-5,7-dihydro-6<em>H</em>-pyrrolo[2,3-<em>d</em>]pyrimidin-6-one",
    "cn_name": null,
    "alternate_name": "6<em>H</em>-Pyrrolo[2,3-<em>d</em>]pyrimidin-6-one, 4-chloro-5,7-dihydro-;6<em>H</em>-Pyrrolo[2,3-<em>d</em>]pyrimidin-6-one, 4-chloro-1,5-dihydro-;4-Chloro-5,7-dihydro-6<em>H</em>-pyrrolo[2,3-<em>d</em>]pyrimidin-6-one;4-Chloro-5,7-dihydropyrrolo[2,3-<em>d</em>]pyrimidin-6-one;4-Chloro-5<em>H</em>-pyrrolo[2,3-<em>d</em>]pyrimidin-6(7<em>H</em>)-one",
    "duplicated_cas_no": "",
    "SMILES": "ClC1=C2C(NC(=O)C2)=NC=N1",
    "meta_data": {
        "InChI": "InChI=1S/C6H4ClN3O/c7-5-3-1-4(11)10-6(3)9-2-8-5/h2H,1H2,(H,8,9,10,11)",
        "InChIKey": null,
        "Canonical SMILES": "O=C1NC=2N=CN=C(Cl)C2C1",
        "Molecular Formula": "C<sub>6</sub>H<sub>4</sub>ClN<sub>3</sub>O",
        "Molecular Mass": "169.57",
        "Melting Point": "188-190 °C"
    }
}