{
    "cas_no": "6530-09-2",
    "key_name": "1-Azabicyclo[2.2.2]octan-3-amine, hydrochloride (1:2)",
    "cn_name": "3-氨基奎宁环盐酸盐;3-奎宁胺二盐酸盐;3-氨基-1-氮杂双环[2.2.2]辛烷二盐酸盐;",
    "alternate_name": "1-Azabicyclo[2.2.2]octan-3-amine, hydrochloride (1:2);1-Azabicyclo[2.2.2]octan-3-amine, dihydrochloride;Quinuclidine, 3-amino-, dihydrochloride;3-Aminoquinuclidine dihydrochloride;1-Azabicyclo[2.2.2]oct-3-ylamine dihydrochloride;3-Amino-1-azabicyclo[2.2.2]octane dihydrochloride;(±)-3-Aminoquinuclidine dihydrochloride;NSC 93906;Quinuclidin-3-amine dihydrochloride",
    "duplicated_cas_no": "124577-62-4",
    "SMILES": "NC1C2CCN(C1)CC2.Cl",
    "meta_data": {
        "InChI": "InChI=1S/C7H14N2.2ClH/c8-7-5-9-3-1-6(7)2-4-9;;/h6-7H,1-5,8H2;2*1H",
        "InChIKey": null,
        "Canonical SMILES": "Cl.NC1CN2CCC1CC2",
        "Molecular Formula": "C<sub>7</sub>H<sub>14</sub>N<sub>2</sub>.2ClH",
        "Molecular Mass": "",
        "Melting Point": "&gt;280 °C"
    }
}