{
    "cas_no": "2050-67-1",
    "key_name": "3,3′-Dichlorobiphenyl",
    "cn_name": "3,3-二氯联苯;3,3-二氯联苯PCBNo11;",
    "alternate_name": "1,1′-Biphenyl, 3,3′-dichloro-;Biphenyl, 3,3′-dichloro-;3,3′-Dichloro-1,1′-biphenyl;3,3′-Dichlorobiphenyl;3,3′-Dichlorodiphenyl;<em>m</em>,<em>m</em>′-Dichlorobiphenyl;3,3′-DCB;PCB 11",
    "duplicated_cas_no": "",
    "SMILES": "ClC=1C=C(C=CC1)C2=CC(Cl)=CC=C2",
    "meta_data": {
        "InChI": "InChI=1S/C12H8Cl2/c13-11-5-1-3-9(7-11)10-4-2-6-12(14)8-10/h1-8H",
        "InChIKey": null,
        "Canonical SMILES": "ClC=1C=CC=C(C1)C=2C=CC=C(Cl)C2",
        "Molecular Formula": "C<sub>12</sub>H<sub>8</sub>Cl<sub>2</sub>",
        "Molecular Mass": "223.10",
        "Boiling Point": "320 °C",
        "Melting Point": "29 °C"
    }
}