{
    "cas_no": "32974-92-8",
    "key_name": "2-Acetyl-3-ethylpyrazine",
    "cn_name": "2-乙酰基-3-乙基吡嗪;2-乙酰基-3-乙基-1,4-二嗪;",
    "alternate_name": "Ethanone, 1-(3-ethyl-2-pyrazinyl)-;Ethanone, 1-(3-ethylpyrazinyl)-;1-(3-Ethyl-2-pyrazinyl)ethanone;2-Acetyl-3-ethylpyrazine;1-(3-Ethylpyrazin-2-yl)ethanone;1-(3-Ethylpyrazin-2-yl)ethan-1-one",
    "duplicated_cas_no": "",
    "SMILES": "C(C)C=1C(C(C)=O)=NC=CN1",
    "meta_data": {
        "InChI": "InChI=1S/C8H10N2O/c1-3-7-8(6(2)11)10-5-4-9-7/h4-5H,3H2,1-2H3",
        "InChIKey": null,
        "Canonical SMILES": "O=C(C1=NC=CN=C1CC)C",
        "Molecular Formula": "C<sub>8</sub>H<sub>10</sub>N<sub>2</sub>O",
        "Molecular Mass": "150.18",
        "Boiling Point": "77 °C @ Press: 6 Torr"
    }
}