{
    "cas_no": "1439-10-7",
    "key_name": "4-Amino-5-bromopyrimidine",
    "cn_name": "4-氨基-5-溴嘧啶;4-氨基-5-溴嘧啶;",
    "alternate_name": "4-Pyrimidinamine, 5-bromo-;Pyrimidine, 4-amino-5-bromo-;5-Bromo-4-pyrimidinamine;4-Amino-5-bromopyrimidine;5-Bromopyrimidin-4-amine",
    "duplicated_cas_no": "",
    "SMILES": "BrC=1C(N)=NC=NC1",
    "meta_data": {
        "InChI": "InChI=1S/C4H4BrN3/c5-3-1-7-2-8-4(3)6/h1-2H,(H2,6,7,8)",
        "InChIKey": null,
        "Canonical SMILES": "BrC=1C=NC=NC1N",
        "Molecular Formula": "C<sub>4</sub>H<sub>4</sub>BrN<sub>3</sub>",
        "Molecular Mass": "174.00",
        "Melting Point": "208-210 °C"
    }
}