{
    "cas_no": "5652-38-0",
    "key_name": "<em>N</em>-Phenyl-β-alanine",
    "cn_name": "DL-3-氨基-3-苯基丙酸;",
    "alternate_name": "β-Alanine, <em>N</em>-phenyl-;<em>N</em>-Phenyl-β-alanine;3-Anilinopropanoic acid;Propanoic acid, 3-(phenylamino)-;3-Anilinopropionic acid;3-(Phenylamino)propionic acid;NSC 54626;<em>N</em>-(2-Carboxyethyl)aniline;3-(Phenylamino)propanoic acid",
    "duplicated_cas_no": "",
    "SMILES": "N(CCC(O)=O)C1=CC=CC=C1",
    "meta_data": {
        "InChI": "InChI=1S/C9H11NO2/c11-9(12)6-7-10-8-4-2-1-3-5-8/h1-5,10H,6-7H2,(H,11,12)",
        "InChIKey": null,
        "Canonical SMILES": "O=C(O)CCNC=1C=CC=CC1",
        "Molecular Formula": "C<sub>9</sub>H<sub>11</sub>NO<sub>2</sub>",
        "Molecular Mass": "165.19",
        "Melting Point": "58-59 °C"
    }
}