{
    "cas_no": "79778-41-9",
    "key_name": "Neridronate",
    "cn_name": null,
    "alternate_name": "Phosphonic acid, <em>P</em>,<em>P</em>′-(6-amino-1-hydroxyhexylidene)bis-;Phosphonic acid, (6-amino-1-hydroxyhexylidene)bis-;<em>P</em>,<em>P</em>′-(6-Amino-1-hydroxyhexylidene)bis[phosphonic acid];6-Amino-1-hydroxyhexane-1,1-diphosphonic acid;6-Amino-1-hydroxyhexylidenediphosphonic acid;Neridronic acid;6-Amino-1-hydroxyhexylidene-1,1-bis(phosphonic acid);Nerixia;Neridronate;(6-Amino-1-hydroxyhexane-1,1-diyl)diphosphonic acid",
    "duplicated_cas_no": "437763-00-3",
    "SMILES": "C(CCCCCN)(P(=O)(O)O)(P(=O)(O)O)O",
    "meta_data": {
        "InChI": "InChI=1S/C6H17NO7P2/c7-5-3-1-2-4-6(8,15(9,10)11)16(12,13)14/h8H,1-5,7H2,(H2,9,10,11)(H2,12,13,14)",
        "InChIKey": null,
        "Canonical SMILES": "O=P(O)(O)C(O)(CCCCCN)P(=O)(O)O",
        "Molecular Formula": "C<sub>6</sub>H<sub>17</sub>NO<sub>7</sub>P<sub>2</sub>",
        "Molecular Mass": "277.15",
        "Melting Point": "247-249 °C"
    }
}