{
    "cas_no": "481-72-1",
    "key_name": "Aloe emodin",
    "cn_name": "芦荟大黄素;1,8-二羟基-3-羟甲基蒽醌;",
    "alternate_name": "9,10-Anthracenedione, 1,8-dihydroxy-3-(hydroxymethyl)-;Anthraquinone, 1,8-dihydroxy-3-(hydroxymethyl)-;1,8-Dihydroxy-3-(hydroxymethyl)-9,10-anthracenedione;1,8-Dihydroxy-3-hydroxymethylanthraquinone;3-Hydroxymethylchrysazin;Rhabarberone;Aloe emodin;Aloe-emodol;3-Hydroxymethylchrysazine;NSC 38628;1,8-Dihydroxy-3-(hydroxymethyl)-9,10-anthraquinone",
    "duplicated_cas_no": "",
    "SMILES": "O=C1C=2C(C(=O)C=3C1=CC=CC3O)=C(O)C=C(CO)C2",
    "meta_data": {
        "InChI": "InChI=1S/C15H10O5/c16-6-7-4-9-13(11(18)5-7)15(20)12-8(14(9)19)2-1-3-10(12)17/h1-5,16-18H,6H2",
        "InChIKey": null,
        "Canonical SMILES": "O=C1C=2C=CC=C(O)C2C(=O)C3=C(O)C=C(C=C13)CO",
        "Molecular Formula": "C<sub>15</sub>H<sub>10</sub>O<sub>5</sub>",
        "Molecular Mass": "270.24",
        "Boiling Point": "60-80 °C",
        "Melting Point": "223.5 °C"
    }
}