{
    "cas_no": "7170-50-5",
    "key_name": "3-(3-Chlorophenoxy)propanoic acid",
    "cn_name": null,
    "alternate_name": "Propanoic acid, 3-(3-chlorophenoxy)-;Propionic acid, 3-(<em>m</em>-chlorophenoxy)-;3-(3-Chlorophenoxy)propanoic acid",
    "duplicated_cas_no": "",
    "SMILES": "O(CCC(O)=O)C1=CC(Cl)=CC=C1",
    "meta_data": {
        "InChI": "InChI=1S/C9H9ClO3/c10-7-2-1-3-8(6-7)13-5-4-9(11)12/h1-3,6H,4-5H2,(H,11,12)",
        "InChIKey": null,
        "Canonical SMILES": "O=C(O)CCOC=1C=CC=C(Cl)C1",
        "Molecular Formula": "C<sub>9</sub>H<sub>9</sub>ClO<sub>3</sub>",
        "Molecular Mass": "200.62",
        "Melting Point": "82-83 °C"
    }
}