{
    "cas_no": "4887-80-3",
    "key_name": "5-Methoxybenzimidazole",
    "cn_name": "5-甲氧基苯并咪唑;5-甲氧基苯并咪唑;",
    "alternate_name": "1<em>H</em>-Benzimidazole, 6-methoxy-;Benzimidazole, 5-methoxy-;1<em>H</em>-Benzimidazole, 5-methoxy-;Benzimidazole, 5(<em>or</em> 6)-methoxy-;6-Methoxy-1<em>H</em>-benzimidazole;5-Methoxybenzimidazole;5-Methoxy-1<em>H</em>-benzimidazole;5[6]-Methoxybenzimidazole;5-Methoxybenzoimidazole;AC 39921",
    "duplicated_cas_no": "",
    "SMILES": "O(C)C=1C=C2C(=CC1)N=CN2",
    "meta_data": {
        "InChI": "InChI=1S/C8H8N2O/c1-11-6-2-3-7-8(4-6)10-5-9-7/h2-5H,1H3,(H,9,10)",
        "InChIKey": null,
        "Canonical SMILES": "N1=CNC=2C=C(OC)C=CC12",
        "Molecular Formula": "C<sub>8</sub>H<sub>8</sub>N<sub>2</sub>O",
        "Molecular Mass": "148.16",
        "Boiling Point": "190-195 °C @ Press: 0.03 Torr",
        "Melting Point": "123 °C"
    }
}