{
    "cas_no": "4312-32-7",
    "key_name": "(±)-Stylopine",
    "cn_name": null,
    "alternate_name": "4<em>H</em>-Bis[1,3]benzodioxolo[5,6-<em>a</em>:4′,5′-<em>g</em>]quinolizine, 6,7,12b,13-tetrahydro-;Berbine, 2,3:9,10-bis(methylenedioxy)-, (±)-;6,7,12b,13-Tetrahydro-4<em>H</em>-bis[1,3]benzodioxolo[5,6-<em>a</em>:4′,5′-<em>g</em>]quinolizine;(±)-Tetrahydrocoptisine;(<em>RS</em>)-Stylopine;<em>dl</em>-Stylopine;(±)-Stylopine;<em>dl</em>-Tetrahydrocoptisine;Tetrahydrocoptisine;2,3:9,10-Bis(methylenedioxy)berbine;NSC 110382;NSC 404529;Chelidamine",
    "duplicated_cas_no": "7461-02-1;11028-74-3;16846-33-6",
    "SMILES": "C12C=3C(=CC4=C(C3)OCO4)CCN1CC=5C(C2)=CC=C6C5OCO6",
    "meta_data": {
        "InChI": "InChI=1S/C19H17NO4/c1-2-16-19(24-10-21-16)14-8-20-4-3-12-6-17-18(23-9-22-17)7-13(12)15(20)5-11(1)14/h1-2,6-7,15H,3-5,8-10H2",
        "InChIKey": null,
        "Canonical SMILES": "O1C2=CC=C3C(=C2OC1)CN4CCC5=CC=6OCOC6C=C5C4C3",
        "Molecular Formula": "C<sub>19</sub>H<sub>17</sub>NO<sub>4</sub>",
        "Molecular Mass": "323.34",
        "Melting Point": "217-218 °C"
    }
}