{
    "cas_no": "100-01-6",
    "key_name": "4-Nitroaniline",
    "cn_name": "4-硝基苯胺;对硝基苯胺;1-氨基-4-硝基苯;",
    "alternate_name": "Benzenamine, 4-nitro-;Aniline, <em>p</em>-nitro-;4-Nitrobenzenamine;C.I. 37035;1-Amino-4-nitrobenzene;C.I. Azoic Diazo Component 37;C.I. Developer 17;Developer P;Devol Red GG;Fast Red P Base;Fast Red 2G Base;Fast Red Base 2J;Fast Red Base GG;Fast Red GG Base;Fast Red MP Base;Naphtoelan Red GG Base;<em>p</em>-Nitraniline;Nitrazol CF extra;PNA;Red 2G Base;Shinnippon Fast Red GG Base;4-Nitroaniline;<em>p</em>-Nitroaniline;<em>p</em>-Aminonitrobenzene;<em>p</em>-Nitrophenylamine;Azoamine Red Zh;4-Aminonitrobenzene;4-Nitrophenylamine;4-Amino-1-nitrobenzene;4-Nitro-1-aminobenzene;NSC 9797;<em>p</em>-Aminonitrobenze",
    "duplicated_cas_no": "1309774-69-3",
    "SMILES": "N(=O)(=O)C1=CC=C(N)C=C1",
    "meta_data": {
        "InChI": "InChI=1S/C6H6N2O2/c7-5-1-3-6(4-2-5)8(9)10/h1-4H,7H2",
        "InChIKey": null,
        "Canonical SMILES": "O=N(=O)C1=CC=C(N)C=C1",
        "Molecular Formula": "C<sub>6</sub>H<sub>6</sub>N<sub>2</sub>O<sub>2</sub>",
        "Molecular Mass": "138.12",
        "Boiling Point": "332 °C",
        "Melting Point": "146 °C",
        "Density": "1.424 g/cm³ @ Temp: 20 °C"
    }
}