{
    "cas_no": "12152-94-2",
    "key_name": "Ferroceneboronic acid",
    "cn_name": null,
    "alternate_name": "Ferrocene, borono-;Ferroceneboronic acid;Iron, (boronocyclopentadienyl)cyclopentadienyl-;Boronoferrocene;Cyclopentadieneboronic acid, cyclopentadienyliron deriv.;Ferrocenylboronic acid;NSC 119337",
    "duplicated_cas_no": "",
    "SMILES": "B(O)(O)[C-]12[Fe+2]3456789([CH]1=[CH]3[CH]4=[CH]52)[CH-]%10[CH]6=[CH]7[CH]8=[CH]9%10",
    "meta_data": {
        "InChI": "InChI=1S/C5H6BO2.C5H5.Fe/c7-6(8)5-3-1-2-4-5;1-2-4-5-3-1;/h1-4,7-8H;1-5H;/q2*-1;+2",
        "InChIKey": null,
        "Canonical SMILES": "OB(O)[C-]12[CH]3=[CH]4[CH]5=[CH]1[Fe+2]67894532[CH]=%10[CH]9=[CH]8[CH-]7[CH]%106",
        "Molecular Formula": "C<sub>10</sub>H<sub>11</sub>BFeO<sub>2</sub>",
        "Molecular Mass": "",
        "Melting Point": "136-140 °C (decomp)"
    }
}