{
    "cas_no": "12068-69-8",
    "key_name": "Bismuth selenide (Bi<sub>2</sub>Se<sub>3</sub>)",
    "cn_name": "砷化铋(III);",
    "alternate_name": "Bismuth selenide (Bi<sub>2</sub>Se<sub>3</sub>);Bismuth sesquiselenide;Dibismuth triselenide;Bismuth selenide;Bismuth selenide (Bi<sub>2</sub>Se<sub>3</sub>), selenium",
    "duplicated_cas_no": "39404-76-7",
    "SMILES": "[Se].[Bi]",
    "meta_data": {
        "InChI": "InChI=1S/Bi.Se",
        "InChIKey": null,
        "Canonical SMILES": "[Se].[Bi]",
        "Molecular Formula": "Bi.Se",
        "Molecular Mass": "",
        "Boiling Point": "1007 °C",
        "Melting Point": "710 °C",
        "Density": "6.97 g/cm³"
    }
}