{
    "uri": "substance/pt/12068698",
    "rn": "12068-69-8",
    "name": "Bismuth selenide (Bi<sub>2</sub>Se<sub>3</sub>)",
    "images": [],
    "inchi": "InChI=1S/Bi.Se",
    "inchiKey": "InChIKey=QEBDLIWRLCPLCY-UHFFFAOYSA-N",
    "smile": "[Se].[Bi]",
    "canonicalSmile": "[Se].[Bi]",
    "molecularFormula": "Bi.Se",
    "molecularMass": "",
    "experimentalProperties": [
        {
            "name": "Boiling Point",
            "property": "1007 °C",
            "sourceNumber": 1
        },
        {
            "name": "Melting Point",
            "property": "710 °C",
            "sourceNumber": 2
        },
        {
            "name": "Density",
            "property": "6.97 g/cm³",
            "sourceNumber": 3
        }
    ],
    "propertyCitations": [
        {
            "docUri": "document/pt/document/21199987",
            "sourceNumber": 1,
            "source": "Ustyugov, G. P.; Izvestiya Akademii Nauk SSSR, Neorganicheskie Materialy, (1969), 5(1), 166-7, CAplus"
        },
        {
            "docUri": "document/pt/document/12368171",
            "sourceNumber": 2,
            "source": "Yarembash, E. I.; Zhurnal Neorganicheskoi Khimii, (1962), 7, 346-50, CAplus"
        },
        {
            "docUri": "document/pt/document/21754433",
            "sourceNumber": 3,
            "source": "Glazov, V. M.; Izvestiya Akademii Nauk SSSR, Neorganicheskie Materialy, (1966), 2(8), 1477-82, CAplus"
        }
    ],
    "synonyms": [
        "Bismuth selenide (Bi<sub>2</sub>Se<sub>3</sub>)",
        "Bismuth sesquiselenide",
        "Dibismuth triselenide",
        "Bismuth selenide",
        "Bismuth selenide (Bi<sub>2</sub>Se<sub>3</sub>), selenium"
    ],
    "replacedRns": [
        "39404-76-7"
    ],
    "hasMolfile": true,
    "source": "https://commonchemistry.cas.org/detail?cas_rn=12068-69-8"
}