{
    "cas_no": "621-64-7",
    "key_name": "<em>N</em>-Nitrosodipropylamine",
    "cn_name": "N-亚硝基二丙胺;二丙基亚硝胺;二正丙基亚硝胺;N-二丙基亚硝胺;",
    "alternate_name": "1-Propanamine, <em>N</em>-nitroso-<em>N</em>-propyl-;Dipropylamine, <em>N</em>-nitroso-;<em>N</em>-Nitroso-<em>N</em>-propyl-1-propanamine;<em>N</em>-Nitrosodipropylamine;Dipropylnitrosamine;<em>N</em>,<em>N</em>-Dipropylnitrosamine;<em>N</em>-Nitroso-<em>N</em>-di-<em>n</em>-propylamine;<em>N</em>-Nitrosodi-<em>n</em>-propylamine;NSC 133",
    "duplicated_cas_no": "",
    "SMILES": "N(CCC)(CCC)N=O",
    "meta_data": {
        "InChI": "InChI=1S/C6H14N2O/c1-3-5-8(7-9)6-4-2/h3-6H2,1-2H3",
        "InChIKey": null,
        "Canonical SMILES": "O=NN(CCC)CCC",
        "Molecular Formula": "C<sub>6</sub>H<sub>14</sub>N<sub>2</sub>O",
        "Molecular Mass": "130.19",
        "Boiling Point": "206 °C",
        "Density": "0.9160 g/cm³ @ Temp: 20 °C"
    }
}