{
    "cas_no": "17283-81-7",
    "key_name": "Dihydro-β-ionone",
    "cn_name": "二氢-β-紫罗兰酮;桂花王;",
    "alternate_name": "2-Butanone, 4-(2,6,6-trimethyl-1-cyclohexen-1-yl)-;4-(2,6,6-Trimethyl-1-cyclohexen-1-yl)-2-butanone;Dihydro-β-ionone;β-Ionone, dihydro-;7,8-Dihydro-β-ionone;α,β-Dihydro-β-ionone;β-7,8-Dihydroionone",
    "duplicated_cas_no": "",
    "SMILES": "C(CC(C)=O)C=1C(C)(C)CCCC1C",
    "meta_data": {
        "InChI": "InChI=1S/C13H22O/c1-10-6-5-9-13(3,4)12(10)8-7-11(2)14/h5-9H2,1-4H3",
        "InChIKey": null,
        "Canonical SMILES": "O=C(C)CCC1=C(C)CCCC1(C)C",
        "Molecular Formula": "C<sub>13</sub>H<sub>22</sub>O",
        "Molecular Mass": "194.31",
        "Boiling Point": "121-122 °C @ Press: 10 Torr",
        "Density": "0.9264 g/cm³ @ Temp: 20 °C"
    }
}