{
    "cas_no": "43229-01-2",
    "key_name": "2-Bromo-1-[3-nitro-4-(phenylmethoxy)phenyl]ethanone",
    "cn_name": "3\"-硝基-4\"-苄氧基-2-溴苯乙酮;",
    "alternate_name": "Ethanone, 2-bromo-1-[3-nitro-4-(phenylmethoxy)phenyl]-;2-Bromo-1-[3-nitro-4-(phenylmethoxy)phenyl]ethanone;4′-(Benzyloxy)-2-bromo-3′-nitroacetophenone;2-Bromo-4′-Benzyloxy-3′-nitroacetophenone;2-Bromo-1-(3-nitro-4-benzyloxyphenyl)ethanone;1-(Benzyloxy)-2-nitro-4-(2-bromoacetyl)benzene;4′-Benzyloxy-3′-nitro-2-bromoacetophenone;1-(4-(Benzyloxy)-3-nitrophenyl)-2-bromoethanone;1-[4-(Benzyloxy)-3-nitrophenyl]-2-bromoethan-1-one",
    "duplicated_cas_no": "",
    "SMILES": "O(CC1=CC=CC=C1)C2=C(N(=O)=O)C=C(C(CBr)=O)C=C2",
    "meta_data": {
        "InChI": "InChI=1S/C15H12BrNO4/c16-9-14(18)12-6-7-15(13(8-12)17(19)20)21-10-11-4-2-1-3-5-11/h1-8H,9-10H2",
        "InChIKey": null,
        "Canonical SMILES": "O=C(C1=CC=C(OCC=2C=CC=CC2)C(=C1)N(=O)=O)CBr",
        "Molecular Formula": "C<sub>15</sub>H<sub>12</sub>BrNO<sub>4</sub>",
        "Molecular Mass": "350.16",
        "Melting Point": "135-137 °C"
    }
}