{
    "cas_no": "452-35-7",
    "key_name": "Ethoxzolamide",
    "cn_name": null,
    "alternate_name": "2-Benzothiazolesulfonamide, 6-ethoxy-;6-Ethoxy-2-benzothiazolesulfonamide;U 4191;Cardrase;Diuretic C;Ethoxyzolamide;Ethoxzolamide;Etoxzolamide;L 643786;PNU 4191;Glaucotensil;Ethamide;Redupresin;NSC 10679;6-Ethoxyzolamide;MeSH ID: D005016",
    "duplicated_cas_no": "",
    "SMILES": "S(N)(=O)(=O)C=1SC=2C(N1)=CC=C(OCC)C2",
    "meta_data": {
        "InChI": "InChI=1S/C9H10N2O3S2/c1-2-14-6-3-4-7-8(5-6)15-9(11-7)16(10,12)13/h3-5H,2H2,1H3,(H2,10,12,13)",
        "InChIKey": null,
        "Canonical SMILES": "O=S(=O)(N)C1=NC=2C=CC(OCC)=CC2S1",
        "Molecular Formula": "C<sub>9</sub>H<sub>10</sub>N<sub>2</sub>O<sub>3</sub>S<sub>2</sub>",
        "Molecular Mass": "258.32",
        "Melting Point": "188-190.5 °C"
    }
}