{
    "cas_no": "86087-23-2",
    "key_name": "(+)-3-Hydroxytetrahydrofuran",
    "cn_name": "(S)-(+)-3-羟基四氢呋喃;",
    "alternate_name": "3-Furanol, tetrahydro-, (3<em>S</em>)-;3-Furanol, tetrahydro-, (<em>S</em>)-;(3<em>S</em>)-Tetrahydro-3-furanol;(<em>S</em>)-Tetrahydro-3-furanol;(<em>S</em>)-(+)-3-Hydroxytetrahydrofuran;(+)-3-Hydroxytetrahydrofuran;(<em>S</em>)-3-Hydroxytetrahydrofuran;3<em>S</em>-Hydroxytetrahydrofuran;(<em>S</em>)-(+)-Tetrahydrofuran-3-ol;(3S)-Tetrahydrofuran-3-ol;(3S)-Oxolan-3-ol;(3<em>S</em>)-Oxolan-3-ol;3-Furanol tetrahydro-, (3S)-",
    "duplicated_cas_no": "",
    "SMILES": "O[C@H]1CCOC1",
    "meta_data": {
        "InChI": "InChI=1S/C4H8O2/c5-4-1-2-6-3-4/h4-5H,1-3H2/t4-/m0/s1",
        "InChIKey": null,
        "Canonical SMILES": "OC1COCC1",
        "Molecular Formula": "C<sub>4</sub>H<sub>8</sub>O<sub>2</sub>",
        "Molecular Mass": "88.11",
        "Boiling Point": "80 °C @ Press: 15 Torr"
    }
}