{
    "cas_no": "824-51-1",
    "key_name": "6-Methyl-1<em>H</em>-pyrrolo[2,3-<em>b</em>]pyridine",
    "cn_name": null,
    "alternate_name": "1<em>H</em>-Pyrrolo[2,3-<em>b</em>]pyridine, 6-methyl-;6-Methyl-1<em>H</em>-pyrrolo[2,3-<em>b</em>]pyridine",
    "duplicated_cas_no": "",
    "SMILES": "CC=1N=C2C(=CC1)C=CN2",
    "meta_data": {
        "InChI": "InChI=1S/C8H8N2/c1-6-2-3-7-4-5-9-8(7)10-6/h2-5H,1H3,(H,9,10)",
        "InChIKey": null,
        "Canonical SMILES": "N1=C(C=CC=2C=CNC12)C",
        "Molecular Formula": "C<sub>8</sub>H<sub>8</sub>N<sub>2</sub>",
        "Molecular Mass": "132.16",
        "Melting Point": "140.3-140.4 °C"
    }
}