{
    "cas_no": "90-99-3",
    "key_name": "Chlorodiphenylmethane",
    "cn_name": "二苯氯甲烷;",
    "alternate_name": "Benzene, 1,1′-(chloromethylene)bis-;Methane, chlorodiphenyl-;1,1′-(Chloromethylene)bis[benzene];Chlorodiphenylmethane;Benzhydryl chloride;Diphenylchloromethane;Diphenylmethyl chloride;α-Chlorodiphenylmethane;NSC 76584;[Chloro(phenyl)methyl]benzene",
    "duplicated_cas_no": "",
    "SMILES": "C(Cl)(C1=CC=CC=C1)C2=CC=CC=C2",
    "meta_data": {
        "InChI": "InChI=1S/C13H11Cl/c14-13(11-7-3-1-4-8-11)12-9-5-2-6-10-12/h1-10,13H",
        "InChIKey": null,
        "Canonical SMILES": "ClC(C=1C=CC=CC1)C=2C=CC=CC2",
        "Molecular Formula": "C<sub>13</sub>H<sub>11</sub>Cl",
        "Molecular Mass": "202.68",
        "Boiling Point": "173 °C @ Press: 19 Torr",
        "Melting Point": "20.5 °C",
        "Density": "1.1398 g/cm³ @ Temp: 20 °C"
    }
}