{
    "cas_no": "2386-26-7",
    "key_name": "1<em>H</em>-Pyrrole-2-carboxylic acid, 4-acetyl-3,5-dimethyl-, ethyl ester",
    "cn_name": "3-乙酰基-2,4-二甲基-5-乙氧羰基吡咯;3-乙酰-2,4-二甲基-5乙氧羰基吡咯;",
    "alternate_name": "1<em>H</em>-Pyrrole-2-carboxylic acid, 4-acetyl-3,5-dimethyl-, ethyl ester;Pyrrole-2-carboxylic acid, 4-acetyl-3,5-dimethyl-, ethyl ester;Ethyl-4-acetyl-3,5-dimethylpyrrole-2-carboxylate;NSC 10765;Ethyl 4-acetyl-3,5-dimethyl-1<em>H</em>-pyrrole-2-carboxylate;3-Acetyl-2,4-dimethyl-5-carbethoxypyrrole",
    "duplicated_cas_no": "",
    "SMILES": "C(OCC)(=O)C1=C(C)C(C(C)=O)=C(C)N1",
    "meta_data": {
        "InChI": "InChI=1S/C11H15NO3/c1-5-15-11(14)10-6(2)9(8(4)13)7(3)12-10/h12H,5H2,1-4H3",
        "InChIKey": null,
        "Canonical SMILES": "O=C(OCC)C=1NC(=C(C(=O)C)C1C)C",
        "Molecular Formula": "C<sub>11</sub>H<sub>15</sub>NO<sub>3</sub>",
        "Molecular Mass": "209.24",
        "Melting Point": "143 °C"
    }
}