{
    "cas_no": "768-60-5",
    "key_name": "1-Ethynyl-4-methoxybenzene",
    "cn_name": "4-乙炔基苯甲醚;(4-甲氧基苯基)乙炔;",
    "alternate_name": "Benzene, 1-ethynyl-4-methoxy-;Anisole, <em>p</em>-ethynyl-;1-Ethynyl-4-methoxybenzene;(<em>p</em>-Methoxyphenyl)acetylene;Anisylacetylene;<em>p</em>-Anisylacetylene;<em>p</em>-Ethynylanisole;(4-Methoxyphenyl)acetylene;4-Ethynylanisole;<em>p</em>-Methoxyphenylethyne;<em>p</em>-Anisylethyne;4-Methoxyphenylethyne;1-Methoxy-4-ethynylbenzene;4-Ethynyl-1-methoxybenzene;NSC 71091;4-Methoxy-1-ethynylbenzene;<em>p</em>-Methoxyethynylbenzene;<em>p</em>-Methoxylphenylacetylene;2-(4-Methoxyphenyl)acetylene;4-Ethylnylanisole;1-Ethynyl-4-methoxybenzne",
    "duplicated_cas_no": "1401716-50-4",
    "SMILES": "C(#C)C1=CC=C(OC)C=C1",
    "meta_data": {
        "InChI": "InChI=1S/C9H8O/c1-3-8-4-6-9(10-2)7-5-8/h1,4-7H,2H3",
        "InChIKey": null,
        "Canonical SMILES": "C#CC1=CC=C(OC)C=C1",
        "Molecular Formula": "C<sub>9</sub>H<sub>8</sub>O",
        "Molecular Mass": "132.16",
        "Boiling Point": "85-90 °C @ Press: 11 Torr",
        "Melting Point": "26-27 °C",
        "Density": "1.008 g/cm³ @ Temp: 17 °C"
    }
}