{
    "cas_no": "4660-80-4",
    "key_name": "Ethyl glycidate",
    "cn_name": "2,3-环氧丙酸乙酯;",
    "alternate_name": "2-Oxiranecarboxylic acid, ethyl ester;Glycidic acid, ethyl ester;Oxiranecarboxylic acid, ethyl ester;Ethyl glycidate;Ethyl oxiranecarboxylate;(Ethoxycarbonyl)oxirane;Ethyl 2-oxiranecarboxylate;Oxirane-2-carboxylic acid ethyl ester",
    "duplicated_cas_no": "93264-11-0",
    "SMILES": "C(OCC)(=O)C1CO1",
    "meta_data": {
        "InChI": "InChI=1S/C5H8O3/c1-2-7-5(6)4-3-8-4/h4H,2-3H2,1H3",
        "InChIKey": null,
        "Canonical SMILES": "O=C(OCC)C1OC1",
        "Molecular Formula": "C<sub>5</sub>H<sub>8</sub>O<sub>3</sub>",
        "Molecular Mass": "116.12",
        "Boiling Point": "88-90 °C @ Press: 60 Torr",
        "Density": "1.085 g/cm³ @ Temp: 20 °C"
    }
}