{
    "cas_no": "6780-38-7",
    "key_name": "Phthalimidoacetyl chloride",
    "cn_name": "N-邻苯二甲酰甘氨酰氯;",
    "alternate_name": "2<em>H</em>-Isoindole-2-acetyl chloride, 1,3-dihydro-1,3-dioxo-;2-Isoindolineacetyl chloride, 1,3-dioxo-;1,3-Dihydro-1,3-dioxo-2<em>H</em>-isoindole-2-acetyl chloride;Phthalimidoacetyl chloride;Phthalylglycyl chloride;<em>N</em>-Phthaloylglycyl chloride;2-Phthalimidoacetyl chloride;Phthalylglycine acid chloride;<em>N</em>-(Phthaloyl)glycinoyl chloride;(1,3-Dioxo-1,3-dihydroisoindol-2-yl)acetyl chloride;NSC 401729;(1,3-Dioxo-1,3-dihydro-2<em>H</em>-isoindol-2-yl)acetyl chloride;2-(1,3-Dioxoisoindolin-2-yl)acetyl chloride;2-Phthalimidoylacetyl chloride;2-(1,3-Dioxoisoindol-2-yl)acetyl chloride;2-(1,3-Dioxo-2,3-dihydro-1<em>H</em>-isoindol-2-yl)acetyl chloride",
    "duplicated_cas_no": "",
    "SMILES": "O=C1C=2C(C(=O)N1CC(Cl)=O)=CC=CC2",
    "meta_data": {
        "InChI": "InChI=1S/C10H6ClNO3/c11-8(13)5-12-9(14)6-3-1-2-4-7(6)10(12)15/h1-4H,5H2",
        "InChIKey": null,
        "Canonical SMILES": "O=C(Cl)CN1C(=O)C=2C=CC=CC2C1=O",
        "Molecular Formula": "C<sub>10</sub>H<sub>6</sub>ClNO<sub>3</sub>",
        "Molecular Mass": "223.61",
        "Boiling Point": "190-192 °C @ Press: 15 Torr",
        "Melting Point": "84-85 °C"
    }
}