{
    "cas_no": "4093-31-6",
    "key_name": "Methyl 4-acetamido-5-chloro-2-methoxybenzoate",
    "cn_name": "4-乙酰氨基-5-氯-2-甲氧基苯甲酸酯;",
    "alternate_name": "Benzoic acid, 4-(acetylamino)-5-chloro-2-methoxy-, methyl ester;<em>o</em>-Anisic acid, 4-acetamido-5-chloro-, methyl ester;Methyl 4-acetamido-5-chloro-<em>o</em>-anisate;Methyl 2-methoxy-4-acetamido-5-chlorobenzoate;Methyl 2-methoxy-4-acetylamino-5-chlorobenzoate;Methyl 4-acetamido-5-chloro-2-methoxybenzoate;4-Acetamido-5-chloro-2-methoxybenzoic acid methyl ester;Methyl 4-acetylamino-5-chloro-2-methoxybenzoate;4-Acetylamino-5-chloro-2-methoxybenzoic acid methyl ester;Methyl 4-(acetylamino)-5-chloro-2-(methyloxy)benzoate",
    "duplicated_cas_no": "",
    "SMILES": "C(OC)(=O)C1=C(OC)C=C(NC(C)=O)C(Cl)=C1",
    "meta_data": {
        "InChI": "InChI=1S/C11H12ClNO4/c1-6(14)13-9-5-10(16-2)7(4-8(9)12)11(15)17-3/h4-5H,1-3H3,(H,13,14)",
        "InChIKey": null,
        "Canonical SMILES": "O=C(OC)C1=CC(Cl)=C(C=C1OC)NC(=O)C",
        "Molecular Formula": "C<sub>11</sub>H<sub>12</sub>ClNO<sub>4</sub>",
        "Molecular Mass": "257.67",
        "Melting Point": "153 °C"
    }
}