{
    "cas_no": "1505-62-0",
    "key_name": "5-Methylbenzo[<em>b</em>]thiophene-2-carboxylic acid",
    "cn_name": null,
    "alternate_name": "Benzo[<em>b</em>]thiophene-2-carboxylic acid, 5-methyl-;5-Methylbenzo[<em>b</em>]thiophene-2-carboxylic acid;5-Methyl-2-benzothiophenecarboxylic acid;2-Carboxy-5-methylbenzo[<em>b</em>]thiophene",
    "duplicated_cas_no": "",
    "SMILES": "C(O)(=O)C=1SC=2C(C1)=CC(C)=CC2",
    "meta_data": {
        "InChI": "InChI=1S/C10H8O2S/c1-6-2-3-8-7(4-6)5-9(13-8)10(11)12/h2-5H,1H3,(H,11,12)",
        "InChIKey": null,
        "Canonical SMILES": "O=C(O)C=1SC=2C=CC(=CC2C1)C",
        "Molecular Formula": "C<sub>10</sub>H<sub>8</sub>O<sub>2</sub>S",
        "Molecular Mass": "192.23",
        "Melting Point": "218.0-219.5 °C"
    }
}