{
    "cas_no": "10075-51-1",
    "key_name": "1-Benzyl-5-bromoindole",
    "cn_name": null,
    "alternate_name": "1<em>H</em>-Indole, 5-bromo-1-(phenylmethyl)-;Indole, 1-benzyl-5-bromo-;5-Bromo-1-(phenylmethyl)-1<em>H</em>-indole;1-Benzyl-5-bromoindole;<em>N</em>-Benzyl-5-bromoindole;NSC 143237;1-Benzyl-5-bromo-1<em>H</em>-indole",
    "duplicated_cas_no": "",
    "SMILES": "C(N1C=2C(C=C1)=CC(Br)=CC2)C3=CC=CC=C3",
    "meta_data": {
        "InChI": "InChI=1S/C15H12BrN/c16-14-6-7-15-13(10-14)8-9-17(15)11-12-4-2-1-3-5-12/h1-10H,11H2",
        "InChIKey": null,
        "Canonical SMILES": "BrC=1C=CC2=C(C=CN2CC=3C=CC=CC3)C1",
        "Molecular Formula": "C<sub>15</sub>H<sub>12</sub>BrN",
        "Molecular Mass": "286.17",
        "Melting Point": "93-95 °C"
    }
}