{
    "cas_no": "1172-18-5",
    "key_name": "Flurazepam hydrochloride",
    "cn_name": null,
    "alternate_name": "2<em>H</em>-1,4-Benzodiazepin-2-one, 7-chloro-1-[2-(diethylamino)ethyl]-5-(2-fluorophenyl)-1,3-dihydro-, hydrochloride (1:2);2<em>H</em>-1,4-Benzodiazepin-2-one, 7-chloro-1-[2-(diethylamino)ethyl]-5-(<em>o</em>-fluorophenyl)-1,3-dihydro-, dihydrochloride;2<em>H</em>-1,4-Benzodiazepin-2-one, 7-chloro-1-[2-(diethylamino)ethyl]-5-(2-fluorophenyl)-1,3-dihydro-, dihydrochloride;Ro 5-6901;7-Chloro-1-[2-(diethylamino)ethyl]-5-(<em>o</em>-fluorophenyl)-1,3-dihydro-2<em>H</em>-1,4-benzodiazepin-2-one dihydrochloride;Dalmane;Flurazepam hydrochloride;7-Chloro-1-(2-diethylaminoethyl)-5-(2-fluorophenyl)-1,3-dihydro-2<em>H</em>-1,4-benzodiazepin-2-one dihydrochloride;ID 480;Flurazepam dihydrochloride;Dalmadorm;Dalmate;Lunipax;Insumin;Dormodor;Benozil;Felson;Somlan;NSC 78559",
    "duplicated_cas_no": "",
    "SMILES": "C(CN(CC)CC)N1C=2C(C(=NCC1=O)C3=C(F)C=CC=C3)=CC(Cl)=CC2.Cl",
    "meta_data": {
        "InChI": "InChI=1S/C21H23ClFN3O.2ClH/c1-3-25(4-2)11-12-26-19-10-9-15(22)13-17(19)21(24-14-20(26)27)16-7-5-6-8-18(16)23;;/h5-10,13H,3-4,11-12,14H2,1-2H3;2*1H",
        "InChIKey": null,
        "Canonical SMILES": "Cl.O=C1N(C=2C=CC(Cl)=CC2C(=NC1)C=3C=CC=CC3F)CCN(CC)CC",
        "Molecular Formula": "C<sub>21</sub>H<sub>23</sub>ClFN<sub>3</sub>O.2ClH",
        "Molecular Mass": "",
        "Melting Point": "190-220 °C"
    }
}