{
    "cas_no": "25655-42-9",
    "key_name": "β-Cyclodextrin-epichlorohydrin copolymer",
    "cn_name": null,
    "alternate_name": "β-Cyclodextrin, polymer with 2-(chloromethyl)oxirane;β-Cyclodextrin, polymer with 1-chloro-2,3-epoxypropane;β-Cyclodextrin, polymer with (chloromethyl)oxirane;Propane, 1-chloro-2,3-epoxy-, polymer with β-cyclodextrin;Oxirane, (chloromethyl)-, polymer with β-cyclodextrin;2,4,7,9,12,14,17,19,22,24,27,29,32,34-Tetradecaoxaoctacyclo[31.2.2.2<sup>3,6</sup>.2<sup>8,11</sup>.2<sup>13,16</sup>.2<sup>18,21</sup>.2<sup>23,26</sup>.2<sup>28,31</sup>]nonatetracontane, β-cyclodextrin deriv.;β-Cyclodextrin-epichlorohydrin copolymer;Epichlorohydrin-β-cyclodextrin copolymer;CY 2009;Poly Ringdex B;β-Cyclodextrin-epichlorohydrin polymer;Poly(β-cyclodextrin-epichlorohydrin);β-Cyclodextrin-chloromethyloxirane copolymer;β-Cyclodextrin-epoxy chloropropane copolymer",
    "duplicated_cas_no": "1569258-33-8",
    "SMILES": "C(O)[C@@H]1[C@@]2([C@H](O)C(O)[C@](O1)(O[C@@]3([C@@H](CO)O[C@@]([C@H](O)[C@H]3O)(O[C@@]4([C@@H](CO)O[C@@]([C@H](O)[C@H]4O)(O[C@@]5([C@@H](CO)O[C@](O[C@]6([C@H](O)[C@@H](O)[C@@](O[C@]7([C@H](O)[C@@H](O)[C@@](O[C@]8([C@H](O)[C@@H](O)[C@@](O2)(O[C@@H]8CO)[H])[H])(O[C@@H]7CO)[H])[H])(O[C@@H]6CO)[H])[H])([C@H](O)[C@H]5O)[H])[H])[H])[H])[H])[H])[H])[H].C(Cl)C1CO1",
    "meta_data": {
        "InChI": "InChI=1S/C42H70O35.C3H5ClO/c43-1-8-29-15(50)22(57)36(64-8)72-30-9(2-44)66-38(24(59)17(30)52)74-32-11(4-46)68-40(26(61)19(32)54)76-34-13(6-48)70-42(28(63)21(34)56)77-35-14(7-49)69-41(27(62)20(35)55)75-33-12(5-47)67-39(25(60)18(33)53)73-31-10(3-45)65-37(71-29)23(58)16(31)51;4-1-3-2-5-3/h8-63H,1-7H2;3H,1-2H2/t8-,9-,10-,11-,12-,13-,14-,15-,16-,17-,18-,19-,20-,21-,22-,23-,24-,25-,26-,27-,28?,29-,30-,31-,32-,33-,34-,35-,36-,37-,38-,39-,40-,41-,42-;/m1./s1",
        "InChIKey": null,
        "Canonical SMILES": "ClCC1OC1.OCC1OC2OC3C(O)C(O)C(OC3CO)OC4C(O)C(O)C(OC4CO)OC5C(O)C(O)C(OC5CO)OC6C(O)C(O)C(OC6CO)OC7C(O)C(O)C(OC7CO)OC8C(O)C(O)C(OC8CO)OC1C(O)C2O",
        "Molecular Formula": "(C<sub>42</sub>H<sub>70</sub>O<sub>35</sub>.C<sub>3</sub>H<sub>5</sub>ClO)<sub>x</sub>",
        "Molecular Mass": "",
        "Melting Point": "240 °C (decomp)"
    }
}