{
    "cas_no": "59512-17-3",
    "key_name": "Ibuprofenamide",
    "cn_name": null,
    "alternate_name": "Benzeneacetamide, α-methyl-4-(2-methylpropyl)-;α-Methyl-4-(2-methylpropyl)benzeneacetamide;2-(4-Isobutylphenyl)propionamide;Ibuprofenamide;(±)-Ibuprofenamide;2-(4-Isobutylphenyl)propanamide;2-[4-(2-Methylpropyl)phenyl]propanamide",
    "duplicated_cas_no": "89269-73-8",
    "SMILES": "C(C(N)=O)(C)C1=CC=C(CC(C)C)C=C1",
    "meta_data": {
        "InChI": "InChI=1S/C13H19NO/c1-9(2)8-11-4-6-12(7-5-11)10(3)13(14)15/h4-7,9-10H,8H2,1-3H3,(H2,14,15)",
        "InChIKey": null,
        "Canonical SMILES": "O=C(N)C(C1=CC=C(C=C1)CC(C)C)C",
        "Molecular Formula": "C<sub>13</sub>H<sub>19</sub>NO",
        "Molecular Mass": "205.30",
        "Melting Point": "106-107 °C"
    }
}