{
    "cas_no": "626-18-6",
    "key_name": "1,3-Benzenedimethanol",
    "cn_name": "间苯二甲醇;1,3-苯二甲醇;",
    "alternate_name": "1,3-Benzenedimethanol;<em>m</em>-Xylene-α,α′-diol;Isophthalyl alcohol;<em>m</em>-Xylylene glycol;<em>m</em>-Benzenedimethanol;1,3-Bis(hydroxymethyl)benzene;<em>m</em>-(Hydroxymethyl)phenylmethanol;<em>m</em>-Bis(hydroxymethyl)benzene;2,6-Bis(hydroxymethyl)benzene;<em>m</em>-Xylylenediol;(3-Hydroxymethylphenyl)methanol;1,3-Di(hydroxymethyl)benzene;1,3-Phenylenedimethanol",
    "duplicated_cas_no": "",
    "SMILES": "C(O)C1=CC(CO)=CC=C1",
    "meta_data": {
        "InChI": "InChI=1S/C8H10O2/c9-5-7-2-1-3-8(4-7)6-10/h1-4,9-10H,5-6H2",
        "InChIKey": null,
        "Canonical SMILES": "OCC1=CC=CC(=C1)CO",
        "Molecular Formula": "C<sub>8</sub>H<sub>10</sub>O<sub>2</sub>",
        "Molecular Mass": "138.16",
        "Melting Point": "57 °C"
    }
}