{
    "cas_no": "5325-97-3",
    "key_name": "1,2,3,4,5,6,7,8-Octahydrophenanthrene",
    "cn_name": null,
    "alternate_name": "Phenanthrene, 1,2,3,4,5,6,7,8-octahydro-;1,2,3,4,5,6,7,8-Octahydrophenanthrene;<em>sym</em>-Octahydrophenanthrene;NSC 240",
    "duplicated_cas_no": "",
    "SMILES": "C=12C3=C(C=CC1CCCC2)CCCC3",
    "meta_data": {
        "InChI": "InChI=1S/C14H18/c1-3-7-13-11(5-1)9-10-12-6-2-4-8-14(12)13/h9-10H,1-8H2",
        "InChIKey": null,
        "Canonical SMILES": "C=1C=C2C(=C3C1CCCC3)CCCC2",
        "Molecular Formula": "C<sub>14</sub>H<sub>18</sub>",
        "Molecular Mass": "186.29",
        "Boiling Point": "295 °C",
        "Melting Point": "16.7 °C",
        "Density": "1.026 g/cm³ @ Temp: 20 °C"
    }
}