{
    "cas_no": "2052-49-5",
    "key_name": "Tetrabutylammonium hydroxide",
    "cn_name": "四丁基氢氧化铵;",
    "alternate_name": "1-Butanaminium, <em>N</em>,<em>N</em>,<em>N</em>-tributyl-, hydroxide (1:1);Ammonium, tetrabutyl-, hydroxide;Tetrabutylammonium hydroxide;1-Butanaminium, <em>N</em>,<em>N</em>,<em>N</em>-tributyl-, hydroxide;Tetra-<em>n</em>-butylammonium hydroxide;TBAH 40",
    "duplicated_cas_no": "107716-44-9;151883-00-0",
    "SMILES": "[N+](CCCC)(CCCC)(CCCC)CCCC.[OH-]",
    "meta_data": {
        "InChI": "InChI=1S/C16H36N.H2O/c1-5-9-13-17(14-10-6-2,15-11-7-3)16-12-8-4;/h5-16H2,1-4H3;1H2/q+1;/p-1",
        "InChIKey": null,
        "Canonical SMILES": "[OH-].CCCC[N+](CCCC)(CCCC)CCCC",
        "Molecular Formula": "C<sub>16</sub>H<sub>36</sub>N.HO",
        "Molecular Mass": "",
        "Melting Point": "26-28 °C",
        "Density": "0.99170 g/cm³ (liquid) @ Temp: 30 °C"
    }
}