{
    "cas_no": "138-86-3",
    "key_name": "Limonene",
    "cn_name": "双戊烯;1-甲基(1-甲基乙烯基)环己烯;",
    "alternate_name": "Cyclohexene, 1-methyl-4-(1-methylethenyl)-;<em>p</em>-Mentha-1,8-diene;1-Methyl-4-(1-methylethenyl)cyclohexene;Cajeputene;Cinene;Kautschin;Nesol;Limonene;1-Methyl-4-isopropenyl-1-cyclohexene;α-Limonene;Dipentene;1,8-<em>p</em>-Menthadiene;Limonen;Cajeputen;Cinen;Dipenten;Eulimen;4-Isopropenyl-1-methyl-1-cyclohexene;4-Isopropenyl-1-methylcyclohexene;1-Methyl-4-isopropenylcyclohexene;Flavor orange;Orange flavor;1-Methyl-<em>p</em>-isopropenyl-1-cyclohexene;PC 560;Goldflush II;(±)-Dipentene;(±)-Limonene;<em>dl</em>-Limonene;<span class=\"text-smallcaps\">DL</span>-Limonene;(±)-α-Limonene;NSC 21446;NSC 844;Roti-Histol;SF 001;Orange X;1-Methyl-4-(prop-1-en-2-yl)cyclohex-1-ene;Lemosol;Florasolv DPE;(±)-1-Methyl-4-(1-methylvinyl)cyclohexene;1-Methyl-4-(1-methylvinyl)cyclohexene;1-Methyl-4-prop-1-en-2-yl-cyclohexene",
    "duplicated_cas_no": "555-08-8;7705-14-8;8022-90-0;8050-32-6",
    "SMILES": "C(C)(=C)C1CCC(C)=CC1",
    "meta_data": {
        "InChI": "InChI=1S/C10H16/c1-8(2)10-6-4-9(3)5-7-10/h4,10H,1,5-7H2,2-3H3",
        "InChIKey": null,
        "Canonical SMILES": "C=C(C)C1CC=C(C)CC1",
        "Molecular Formula": "C<sub>10</sub>H<sub>16</sub>",
        "Molecular Mass": "136.23",
        "Boiling Point": "175.5-176.5 °C @ Press: 763 Torr",
        "Melting Point": "-95.5 °C",
        "Density": "0.8402 g/cm³ @ Temp: 20.85 °C"
    }
}