{
    "cas_no": "32383-76-9",
    "key_name": "Medicarpin",
    "cn_name": null,
    "alternate_name": "6<em>H</em>-Benzofuro[3,2-<em>c</em>][1]benzopyran-3-ol, 6a,11a-dihydro-9-methoxy-, (6a<em>R</em>,11a<em>R</em>)-;6<em>H</em>-Benzofuro[3,2-<em>c</em>][1]benzopyran-3-ol, 6a,11a-dihydro-9-methoxy-, <em>cis</em>-(-)-;6<em>H</em>-Benzofuro[3,2-<em>c</em>][1]benzopyran-3-ol, 6a,11a-dihydro-9-methoxy-, (6a<em>R</em>-<em>cis</em>)-;(6a<em>R</em>,11a<em>R</em>)-6a,11a-Dihydro-9-methoxy-6<em>H</em>-benzofuro[3,2-<em>c</em>][1]benzopyran-3-ol;(-)-3-Hydroxy-9-methoxypterocarpan;(-)-Medicarpin;(-)-Demethylhomopterocarpin;Medicarpin, (-)-;<em>l</em>-3-Hydroxy-9-methoxypterocarpan;Medicarpin;3-Hydroxy-9-methoxypterocarpan;NSC 350085;Demethylhomopterocarpin;(6AR,11aR)-9-methoxy-6a,11a-dihydro-6<em>H</em>-[1]benzofuro[3,2-<em>c</em>]chromen-3-ol",
    "duplicated_cas_no": "22973-30-4;36531-12-1",
    "SMILES": "OC=1C=C2C([C@]3([C@](C=4C(O3)=CC(OC)=CC4)(CO2)[H])[H])=CC1",
    "meta_data": {
        "InChI": "InChI=1S/C16H14O4/c1-18-10-3-5-11-13-8-19-14-6-9(17)2-4-12(14)16(13)20-15(11)7-10/h2-7,13,16-17H,8H2,1H3/t13-,16-/m0/s1",
        "InChIKey": null,
        "Canonical SMILES": "OC1=CC=C2C(OCC3C4=CC=C(OC)C=C4OC23)=C1",
        "Molecular Formula": "C<sub>16</sub>H<sub>14</sub>O<sub>4</sub>",
        "Molecular Mass": "270.28",
        "Melting Point": "128 °C"
    }
}