{
    "cas_no": "7150-55-2",
    "key_name": "4-Chloro-1-(4-hydroxyphenyl)-1-butanone",
    "cn_name": "4-氯-4-羟基丁苯酮;4-氯-4-羟基丁苯酮;",
    "alternate_name": "1-Butanone, 4-chloro-1-(4-hydroxyphenyl)-;Butyrophenone, 4-chloro-4′-hydroxy-;4-Chloro-1-(4-hydroxyphenyl)-1-butanone;<em>p</em>-(4-Chlorobutyryl)phenol;4-Chloro-4′-hydroxybutyrophenone;NSC 71882",
    "duplicated_cas_no": "",
    "SMILES": "C(CCCCl)(=O)C1=CC=C(O)C=C1",
    "meta_data": {
        "InChI": "InChI=1S/C10H11ClO2/c11-7-1-2-10(13)8-3-5-9(12)6-4-8/h3-6,12H,1-2,7H2",
        "InChIKey": null,
        "Canonical SMILES": "O=C(C1=CC=C(O)C=C1)CCCCl",
        "Molecular Formula": "C<sub>10</sub>H<sub>11</sub>ClO<sub>2</sub>",
        "Molecular Mass": "198.65",
        "Melting Point": "114-115.2 °C"
    }
}