{
    "cas_no": "78510-19-7",
    "key_name": "<em>N</em>-<em>trans</em>-Feruloylmethoxytyramine",
    "cn_name": null,
    "alternate_name": "2-Propenamide, 3-(4-hydroxy-3-methoxyphenyl)-<em>N</em>-[2-(4-hydroxy-3-methoxyphenyl)ethyl]-, (2<em>E</em>)-;2-Propenamide, 3-(4-hydroxy-3-methoxyphenyl)-<em>N</em>-[2-(4-hydroxy-3-methoxyphenyl)ethyl]-, (<em>E</em>)-;(2<em>E</em>)-3-(4-Hydroxy-3-methoxyphenyl)-<em>N</em>-[2-(4-hydroxy-3-methoxyphenyl)ethyl]-2-propenamide;<em>N</em>-<em>trans</em>-Feruloyl 3-<em>O</em>-methyldopamine;<em>trans</em>-<em>N</em>-Feruloyl-3-<em>O</em>-methyldopamine;<em>N</em>-<em>trans</em>-Feruloylhomovanillylamine;<em>N</em>-Transferuloyl 3-<em>O</em>-methyldopamine;<em>trans</em>-Feruloylmethoxytyramine;<em>N</em>-<em>trans</em>-Feruloyl-3-methyldopamine;<em>N</em>-<em>trans</em>-Feruloylmethoxytyramine;<em>N</em>-<em>trans</em>-Feruloyl-3-methoxytyramine",
    "duplicated_cas_no": "",
    "SMILES": "C(CNC(/C=C/C1=CC(OC)=C(O)C=C1)=O)C2=CC(OC)=C(O)C=C2",
    "meta_data": {
        "InChI": "InChI=1S/C19H21NO5/c1-24-17-11-13(3-6-15(17)21)5-8-19(23)20-10-9-14-4-7-16(22)18(12-14)25-2/h3-8,11-12,21-22H,9-10H2,1-2H3,(H,20,23)/b8-5+",
        "InChIKey": null,
        "Canonical SMILES": "O=C(C=CC1=CC=C(O)C(OC)=C1)NCCC2=CC=C(O)C(OC)=C2",
        "Molecular Formula": "C<sub>19</sub>H<sub>21</sub>NO<sub>5</sub>",
        "Molecular Mass": "343.37",
        "Melting Point": "105-106 °C"
    }
}