{
    "cas_no": "3978-86-7",
    "key_name": "Azatadine maleate",
    "cn_name": null,
    "alternate_name": "5<em>H</em>-Benzo[5,6]cyclohepta[1,2-<em>b</em>]pyridine, 6,11-dihydro-11-(1-methyl-4-piperidinylidene)-, (2<em>Z</em>)-2-butenedioate (1:2);5<em>H</em>-Benzo[5,6]cyclohepta[1,2-<em>b</em>]pyridine, 6,11-dihydro-11-(1-methyl-4-piperidylidene)-, maleate (1:2);5<em>H</em>-Benzo[5,6]cyclohepta[1,2-<em>b</em>]pyridine, 6,11-dihydro-11-(1-methyl-4-piperidinylidene)-, (<em>Z</em>)-2-butenedioate (1:2);Azatadine maleate;5-(4′-<em>N</em>-Methylpiperidylidene)-4-azo-10:11-dihydrodibenzocycloheptene dimaleate;Azatadine dimaleate;Sch 10649;Idulian;Optimine;Trinalin;Atoramin;Bonamid;Zadine;11-(1-Methylpiperidin-4-ylidene)-6,11-dihydro-5<em>H</em>-benzo[5,6]cyclohepta[1,2-<em>b</em>]pyridine dimaleate",
    "duplicated_cas_no": "",
    "SMILES": "CN1CCC(=C2C=3C(CCC=4C2=NC=CC4)=CC=CC3)CC1.C(=C\\C(O)=O)\\C(O)=O",
    "meta_data": {
        "InChI": "InChI=1S/C20H22N2.C4H4O4/c1-22-13-10-16(11-14-22)19-18-7-3-2-5-15(18)8-9-17-6-4-12-21-20(17)19;5-3(6)1-2-4(7)8/h2-7,12H,8-11,13-14H2,1H3;1-2H,(H,5,6)(H,7,8)/b;2-1-",
        "InChIKey": null,
        "Canonical SMILES": "O=C(O)C=CC(=O)O.N1=CC=CC2=C1C(C=3C=CC=CC3CC2)=C4CCN(C)CC4",
        "Molecular Formula": "C<sub>20</sub>H<sub>22</sub>N<sub>2</sub>.2C<sub>4</sub>H<sub>4</sub>O<sub>4</sub>",
        "Molecular Mass": "",
        "Melting Point": "152-154 °C"
    }
}