{
    "cas_no": "4493-42-9",
    "key_name": "Methyl (<em>E</em>,<em>Z</em>)-2,4-decadienoate",
    "cn_name": null,
    "alternate_name": "2,4-Decadienoic acid, methyl ester, (2<em>E</em>,4<em>Z</em>)-;2,4-Decadienoic acid, methyl ester, (<em>E</em>,<em>Z</em>)-;Methyl <em>trans</em>-2,<em>cis</em>-4-decadienoate;Methyl 2-<em>trans</em>-4-<em>cis</em>-decadienoate;Methyl (<em>E</em>,<em>Z</em>)-2,4-decadienoate;Methyl (2E,4Z)-2,4-decadienoate;Methyl 2<em>E</em>,4<em>Z</em>-decadienoate;Methyl (2<em>E</em>,4<em>Z</em>)-2,4-decadienoate;(2<em>E</em>,4<em>Z</em>)-2,4-Decadienoic acid methyl ester",
    "duplicated_cas_no": "",
    "SMILES": "C(=C/C=C\\CCCCC)\\C(OC)=O",
    "meta_data": {
        "InChI": "InChI=1S/C11H18O2/c1-3-4-5-6-7-8-9-10-11(12)13-2/h7-10H,3-6H2,1-2H3/b8-7-,10-9+",
        "InChIKey": null,
        "Canonical SMILES": "O=C(OC)C=CC=CCCCCC",
        "Molecular Formula": "C<sub>11</sub>H<sub>18</sub>O<sub>2</sub>",
        "Molecular Mass": "182.26",
        "Boiling Point": "75 °C @ Press: 0.07 Torr",
        "Density": "0.9128 g/cm³ @ Temp: 22 °C"
    }
}