{
    "cas_no": "1147-43-9",
    "key_name": "2-(2-Aminobenzoyl)benzoic acid",
    "cn_name": "2-氨基二苯甲酮-2-羧酸;",
    "alternate_name": "Benzoic acid, 2-(2-aminobenzoyl)-;Benzoic acid, <em>o</em>-anthraniloyl-;2-(2-Aminobenzoyl)benzoic acid;2-Amino-2′-carboxybenzophenone;<em>o</em>-Anthraniloylbenzoic acid;2-Aminobenzophenone-2′-carboxylic acid",
    "duplicated_cas_no": "",
    "SMILES": "C(=O)(C1=C(C(O)=O)C=CC=C1)C2=C(N)C=CC=C2",
    "meta_data": {
        "InChI": "InChI=1S/C14H11NO3/c15-12-8-4-3-7-11(12)13(16)9-5-1-2-6-10(9)14(17)18/h1-8H,15H2,(H,17,18)",
        "InChIKey": null,
        "Canonical SMILES": "O=C(O)C=1C=CC=CC1C(=O)C=2C=CC=CC2N",
        "Molecular Formula": "C<sub>14</sub>H<sub>11</sub>NO<sub>3</sub>",
        "Molecular Mass": "241.24",
        "Melting Point": "199 °C"
    }
}