{
    "cas_no": "192374-15-5",
    "key_name": "(-)-(2<em>R</em>,3<em>R</em>)-2-(3-chlorophenyl)-3,5,5-trimethyl-2-morpholinol",
    "cn_name": null,
    "alternate_name": "2-Morpholinol, 2-(3-chlorophenyl)-3,5,5-trimethyl-, (2<em>R</em>,3<em>R</em>)-;2-Morpholinol, 2-(3-chlorophenyl)-3,5,5-trimethyl-, (2<em>R</em>-<em>cis</em>)-;(2<em>R</em>,3<em>R</em>)-2-(3-Chlorophenyl)-3,5,5-trimethyl-2-morpholinol;(-)-(2<em>R</em>,3<em>R</em>)-2-(3-chlorophenyl)-3,5,5-trimethyl-2-morpholinol;(<em>R</em>,<em>R</em>)-Hydroxybupropion",
    "duplicated_cas_no": "",
    "SMILES": "O[C@]1([C@@H](C)NC(C)(C)CO1)C2=CC(Cl)=CC=C2",
    "meta_data": {
        "InChI": "InChI=1S/C13H18ClNO2/c1-9-13(16,17-8-12(2,3)15-9)10-5-4-6-11(14)7-10/h4-7,9,15-16H,8H2,1-3H3/t9-,13+/m1/s1",
        "InChIKey": null,
        "Canonical SMILES": "ClC1=CC=CC(=C1)C2(O)OCC(NC2C)(C)C",
        "Molecular Formula": "C<sub>13</sub>H<sub>18</sub>ClNO<sub>2</sub>",
        "Molecular Mass": "255.74",
        "Melting Point": "128-131 °C"
    }
}