{
    "cas_no": "459-56-3",
    "key_name": "4-Fluorobenzyl alcohol",
    "cn_name": "对氟苯甲醇;4-氟苯甲醇;",
    "alternate_name": "Benzenemethanol, 4-fluoro-;Benzyl alcohol, <em>p</em>-fluoro-;4-Fluorobenzenemethanol;<em>p</em>-Fluorobenzyl alcohol;4-Fluorobenzyl alcohol;(4-Fluorophenyl)methanol;NSC 63347;<em>p</em>-Fluorophenylmethanol",
    "duplicated_cas_no": "185532-78-9",
    "SMILES": "C(O)C1=CC=C(F)C=C1",
    "meta_data": {
        "InChI": "InChI=1S/C7H7FO/c8-7-3-1-6(5-9)2-4-7/h1-4,9H,5H2",
        "InChIKey": null,
        "Canonical SMILES": "FC1=CC=C(C=C1)CO",
        "Molecular Formula": "C<sub>7</sub>H<sub>7</sub>FO",
        "Molecular Mass": "126.13",
        "Boiling Point": "210 °C",
        "Melting Point": "23 °C"
    }
}