{
    "cas_no": "5746-86-1",
    "key_name": "(±)-Nornicotine",
    "cn_name": "3-(吡咯烷-2-基)吡啶;",
    "alternate_name": "Pyridine, 3-(2-pyrrolidinyl)-;Nicotine, 1′-demethyl-, (±)-;Pyridine, 3-(2-pyrrolidinyl)-, (±)-;3-(2-Pyrrolidinyl)pyridine;(±)-1′-Demethylnicotine;(±)-Nornicotine;(<em>RS</em>)-Nornicotine;2-(3-Pyridinyl)pyrrolidine;3-(Pyrrolidin-2-yl)pyridine",
    "duplicated_cas_no": "13450-58-3",
    "SMILES": "C1(CCCN1)C=2C=CC=NC2",
    "meta_data": {
        "InChI": "InChI=1S/C9H12N2/c1-3-8(7-10-5-1)9-4-2-6-11-9/h1,3,5,7,9,11H,2,4,6H2",
        "InChIKey": null,
        "Canonical SMILES": "N=1C=CC=C(C1)C2NCCC2",
        "Molecular Formula": "C<sub>9</sub>H<sub>12</sub>N<sub>2</sub>",
        "Molecular Mass": "148.21",
        "Boiling Point": "150-155 °C @ Press: 20 Torr",
        "Melting Point": "235-236 °C"
    }
}