{
    "cas_no": "2000-43-3",
    "key_name": "2,2,2-Trichloro-1-phenylethanol",
    "cn_name": "2,2,2-三氯-1-苯基乙醇;",
    "alternate_name": "Benzenemethanol, α-(trichloromethyl)-;Benzyl alcohol, α-(trichloromethyl)-;α-(Trichloromethyl)benzenemethanol;Efiran 99;Phenyl(trichloromethyl)carbinol;α-(Trichloromethyl)benzyl alcohol;2,2,2-Trichloro-1-phenylethanol;1-Phenyl-2,2,2-trichloroethanol;NSC 2796;1,1,1-Trichloro-2-hydroxy-2-phenylethane;2,2,2-Trichloro-1-phenylethan-1-ol",
    "duplicated_cas_no": "53495-27-5",
    "SMILES": "C(C(Cl)(Cl)Cl)(O)C1=CC=CC=C1",
    "meta_data": {
        "InChI": "InChI=1S/C8H7Cl3O/c9-8(10,11)7(12)6-4-2-1-3-5-6/h1-5,7,12H",
        "InChIKey": null,
        "Canonical SMILES": "ClC(Cl)(Cl)C(O)C=1C=CC=CC1",
        "Molecular Formula": "C<sub>8</sub>H<sub>7</sub>Cl<sub>3</sub>O",
        "Molecular Mass": "225.50",
        "Boiling Point": "155-156 °C @ Press: 150 Torr",
        "Melting Point": "37 °C",
        "Density": "1.464 g/cm³ @ Temp: 20 °C"
    }
}