{
    "cas_no": "13880-89-2",
    "key_name": "3-Hydroxypentanedinitrile",
    "cn_name": "3-羟基戊二腈;1,3-二腈-2-丙醇;",
    "alternate_name": "Pentanedinitrile, 3-hydroxy-;Glutaronitrile, 3-hydroxy-;3-Hydroxypentanedinitrile;3-Hydroxyglutaronitrile;1,3-Dicyano-2-hydroxypropane;1,3-Dicyano-2-propanol;NSC 625028",
    "duplicated_cas_no": "",
    "SMILES": "C(CC#N)(CC#N)O",
    "meta_data": {
        "InChI": "InChI=1S/C5H6N2O/c6-3-1-5(8)2-4-7/h5,8H,1-2H2",
        "InChIKey": null,
        "Canonical SMILES": "N#CCC(O)CC#N",
        "Molecular Formula": "C<sub>5</sub>H<sub>6</sub>N<sub>2</sub>O",
        "Molecular Mass": "110.11",
        "Boiling Point": "202-203 °C @ Press: 11 Torr",
        "Density": "1.808 g/cm³ @ Temp: 22 °C"
    }
}