{
    "cas_no": "993-00-0",
    "key_name": "(Chlorosilyl)methane",
    "cn_name": "甲基氯硅烷混合单体;甲基氯硅烷；氯甲基硅烷;",
    "alternate_name": "Silane, chloromethyl-;Methylchlorosilane;Chloromethylsilane;(Chlorosilyl)methane",
    "duplicated_cas_no": "",
    "SMILES": "[SiH2](C)Cl",
    "meta_data": {
        "InChI": "InChI=1S/CH5ClSi/c1-3-2/h3H2,1H3",
        "InChIKey": null,
        "Canonical SMILES": "Cl[SiH2]C",
        "Molecular Formula": "CH<sub>5</sub>ClSi",
        "Molecular Mass": "80.59",
        "Boiling Point": "7 °C",
        "Melting Point": "-135 °C",
        "Density": "1.1766 g/cm³ @ Temp: 20 °C"
    }
}