{
    "cas_no": "836-59-9",
    "key_name": "4-[2-(4-Bromophenoxy)ethyl]morpholine",
    "cn_name": null,
    "alternate_name": "Morpholine, 4-[2-(4-bromophenoxy)ethyl]-;Morpholine, 4-[2-(<em>p</em>-bromophenoxy)ethyl]-;4-[2-(4-Bromophenoxy)ethyl]morpholine;4-[2-Morpholinoethoxy]phenyl bromide;<em>N</em>-[2-(4-Bromophenoxy)ethyl]morpholine",
    "duplicated_cas_no": "",
    "SMILES": "O(CCN1CCOCC1)C2=CC=C(Br)C=C2",
    "meta_data": {
        "InChI": "InChI=1S/C12H16BrNO2/c13-11-1-3-12(4-2-11)16-10-7-14-5-8-15-9-6-14/h1-4H,5-10H2",
        "InChIKey": null,
        "Canonical SMILES": "BrC1=CC=C(OCCN2CCOCC2)C=C1",
        "Molecular Formula": "C<sub>12</sub>H<sub>16</sub>BrNO<sub>2</sub>",
        "Molecular Mass": "286.16",
        "Boiling Point": "147-149 °C @ Press: 3 Torr"
    }
}