{
    "cas_no": "22688-78-4",
    "key_name": "Kaempferol 3-<em>O</em>-glucuronide",
    "cn_name": null,
    "alternate_name": "β-<span class=\"text-smallcaps\">D</span>-Glucopyranosiduronic acid, 5,7-dihydroxy-2-(4-hydroxyphenyl)-4-oxo-4<em>H</em>-1-benzopyran-3-yl;Glucopyranosiduronic acid, 5,7-dihydroxy-2-(<em>p</em>-hydroxyphenyl)-4-oxo-4<em>H</em>-1-benzopyran-3-yl, β-<span class=\"text-smallcaps\">D</span>-;5,7-Dihydroxy-2-(4-hydroxyphenyl)-4-oxo-4<em>H</em>-1-benzopyran-3-yl β-<span class=\"text-smallcaps\">D</span>-glucopyranosiduronic acid;Glucuronyl-3-kaempferol;Kaempferol 3-glucuronide;Kaempferol 3-β-glucuronide;Kaempferol 3-β-<span class=\"text-smallcaps\">D</span>-glucuronide;Kaempferol 3-<em>O</em>-glucuronide;Kaempherol 3-<em>O</em>-β-glucuronide;Kaempferol 3-<em>O</em>-β-glucuronide;Kaempferol 3-<em>O</em>-β-<span class=\"text-smallcaps\">D</span>-glucuronide;Kaempferol 3-<em>O</em>-β-<span class=\"text-smallcaps\">D</span>-glucuronopyranoside",
    "duplicated_cas_no": "27215-05-0;30137-95-2;352565-48-1",
    "SMILES": "O(C1=C(OC=2C(C1=O)=C(O)C=C(O)C2)C3=CC=C(O)C=C3)[C@@H]4O[C@H](C(O)=O)[C@@H](O)[C@H](O)[C@H]4O",
    "meta_data": {
        "InChI": "InChI=1S/C21H18O12/c22-8-3-1-7(2-4-8)17-18(13(25)12-10(24)5-9(23)6-11(12)31-17)32-21-16(28)14(26)15(27)19(33-21)20(29)30/h1-6,14-16,19,21-24,26-28H,(H,29,30)/t14-,15-,16+,19-,21+/m0/s1",
        "InChIKey": null,
        "Canonical SMILES": "O=C(O)C1OC(OC=2C(=O)C=3C(O)=CC(O)=CC3OC2C=4C=CC(O)=CC4)C(O)C(O)C1O",
        "Molecular Formula": "C<sub>21</sub>H<sub>18</sub>O<sub>12</sub>",
        "Molecular Mass": "462.36",
        "Melting Point": "189-191 °C"
    }
}