{
    "cas_no": "1484-14-6",
    "key_name": "Carbazole-9-ethanol",
    "cn_name": "9-咔唑乙醇;9H-咔唑-9-乙醇;",
    "alternate_name": "9<em>H</em>-Carbazole-9-ethanol;Carbazole-9-ethanol;<em>N</em>-(2-Hydroxyethyl)carbazole;<em>N</em>-(Hydroxyethyl)carbazole;<em>N</em>-(β-Hydroxyethyl)carbazole;9-(2-Hydroxyethyl)carbazole;2-(9-Carbazolyl)ethanol;2-(<em>N</em>-Carbazolyl)ethanol;NSC 21081;9-(2-Hydroxyethyl)-9<em>H</em>-carbazole;2-(9<em>H</em>-Carbazol-9-yl)ethanol;2-(9<em>H</em>-Carbazol-9-yl)ethan-1-ol",
    "duplicated_cas_no": "",
    "SMILES": "C(CO)N1C=2C(C=3C1=CC=CC3)=CC=CC2",
    "meta_data": {
        "InChI": "InChI=1S/C14H13NO/c16-10-9-15-13-7-3-1-5-11(13)12-6-2-4-8-14(12)15/h1-8,16H,9-10H2",
        "InChIKey": null,
        "Canonical SMILES": "OCCN1C=2C=CC=CC2C=3C=CC=CC31",
        "Molecular Formula": "C<sub>14</sub>H<sub>13</sub>NO",
        "Molecular Mass": "211.26",
        "Boiling Point": "220 °C @ Press: 5 Torr",
        "Melting Point": "79.5-80.5 °C"
    }
}