{
    "cas_no": "3446-89-7",
    "key_name": "4-(Methylthio)benzaldehyde",
    "cn_name": "4-(甲基巯基)苯甲醛;4-甲基硫代苯甲醛;对甲硫基苯甲醛;",
    "alternate_name": "Benzaldehyde, 4-(methylthio)-;Benzaldehyde, <em>p</em>-(methylthio)-;4-(Methylthio)benzaldehyde;<em>p</em>-(Methylthio)benzaldehyde;4-(Methylmercapto)benzaldehyde;Methyl 4-formylphenyl thioether;4-Methylsulfanylbenzaldehyde;4-Methanethiobenzaldehyde;4-Methanesulfanylbenzaldehyde;4-Formylthioanisole",
    "duplicated_cas_no": "942039-57-8",
    "SMILES": "C(=O)C1=CC=C(SC)C=C1",
    "meta_data": {
        "InChI": "InChI=1S/C8H8OS/c1-10-8-4-2-7(6-9)3-5-8/h2-6H,1H3",
        "InChIKey": null,
        "Canonical SMILES": "O=CC1=CC=C(SC)C=C1",
        "Molecular Formula": "C<sub>8</sub>H<sub>8</sub>OS",
        "Molecular Mass": "152.21",
        "Boiling Point": "273 °C"
    }
}