{
    "cas_no": "1634-02-2",
    "key_name": "Tetrabutylthiuram disulfide",
    "cn_name": "促进剂TBTD;预分散TBTD-80;母胶粒TBTD-80;药胶TBTD-80;促进剂TBTD;二硫代四丁基秋兰姆;二(硫代过氧基二甲酰;",
    "alternate_name": "Thioperoxydicarbonic diamide ([(H<sub>2</sub>N)C(S)]<sub>2</sub>S<sub>2</sub>), <em>N</em>,<em>N</em>,<em>N</em>′,<em>N</em>′-tetrabutyl-;Disulfide, bis(dibutylthiocarbamoyl);Thioperoxydicarbonic diamide ([(H<sub>2</sub>N)C(S)]<sub>2</sub>S<sub>2</sub>), tetrabutyl-;Tetrabutylthiuram disulfide;Methanethioamide, 1,1′-dithiobis[<em>N</em>,<em>N</em>-dibutyl-;Bis(dibutylthiocarbamoyl) disulfide;<em>N</em>,<em>N</em>,<em>N</em>′,<em>N</em>′-Tetrabutylthiuram disulfide;Nocceler TBT;Butyl Tuads;Robac TBUT;Nocceler TBT-N;NSC 677476;E-BT 55;TBTD;Accel TBT-P;Tetra-<em>n</em>-butylthiuram disulfide;Sanceler TBT;Zinc ionophore I;TBTD 70;TBT-P;Nocceler TBT-P",
    "duplicated_cas_no": "777902-92-8;1421681-46-0",
    "SMILES": "N(C(SSC(N(CCCC)CCCC)=S)=S)(CCCC)CCCC",
    "meta_data": {
        "InChI": "InChI=1S/C18H36N2S4/c1-5-9-13-19(14-10-6-2)17(21)23-24-18(22)20(15-11-7-3)16-12-8-4/h5-16H2,1-4H3",
        "InChIKey": null,
        "Canonical SMILES": "S=C(SSC(=S)N(CCCC)CCCC)N(CCCC)CCCC",
        "Molecular Formula": "C<sub>18</sub>H<sub>36</sub>N<sub>2</sub>S<sub>4</sub>",
        "Molecular Mass": "408.75",
        "Melting Point": "95 °C"
    }
}