{
    "cas_no": "21221-93-2",
    "key_name": "[3,5-Bis(trifluoromethyl)phenyl]phenylmethanone",
    "cn_name": "3,5-二(三氟甲基)苯甲酮;",
    "alternate_name": "Methanone, [3,5-bis(trifluoromethyl)phenyl]phenyl-;Benzophenone, 3,5-bis(trifluoromethyl)-;[3,5-Bis(trifluoromethyl)phenyl]phenylmethanone;[3,5-Bis(trifluoromethyl)phenyl](phenyl)methanone;3,5-Bis(trifluoromethyl)benzophenone",
    "duplicated_cas_no": "",
    "SMILES": "C(=O)(C1=CC(C(F)(F)F)=CC(C(F)(F)F)=C1)C2=CC=CC=C2",
    "meta_data": {
        "InChI": "InChI=1S/C15H8F6O/c16-14(17,18)11-6-10(7-12(8-11)15(19,20)21)13(22)9-4-2-1-3-5-9/h1-8H",
        "InChIKey": null,
        "Canonical SMILES": "O=C(C=1C=CC=CC1)C=2C=C(C=C(C2)C(F)(F)F)C(F)(F)F",
        "Molecular Formula": "C<sub>15</sub>H<sub>8</sub>F<sub>6</sub>O",
        "Molecular Mass": "318.21",
        "Melting Point": "109.0-110.8 °C"
    }
}