{
    "cas_no": "4371-64-6",
    "key_name": "2-Hexadecylpropanedioic acid",
    "cn_name": null,
    "alternate_name": "Propanedioic acid, 2-hexadecyl-;Malonic acid, hexadecyl-;Propanedioic acid, hexadecyl-;2-Hexadecylpropanedioic acid;1,1-Heptadecanedicarboxylic acid;Hexadecylmalonic acid;2-Hexadecylmalonic acid;NSC 74095;Hexadecyl propanedioic acid",
    "duplicated_cas_no": "",
    "SMILES": "C(CCCCCCCCCCCCCCCC)(C(O)=O)C(O)=O",
    "meta_data": {
        "InChI": "InChI=1S/C19H36O4/c1-2-3-4-5-6-7-8-9-10-11-12-13-14-15-16-17(18(20)21)19(22)23/h17H,2-16H2,1H3,(H,20,21)(H,22,23)",
        "InChIKey": null,
        "Canonical SMILES": "O=C(O)C(C(=O)O)CCCCCCCCCCCCCCCC",
        "Molecular Formula": "C<sub>19</sub>H<sub>36</sub>O<sub>4</sub>",
        "Molecular Mass": "328.49",
        "Melting Point": "119 °C"
    }
}