{
    "cas_no": "6074-84-6",
    "key_name": "Tantalum ethoxide",
    "cn_name": "乙醇钽(V);",
    "alternate_name": "Ethanol, tantalum(5+) salt (5:1);Ethyl alcohol, tantalum(5+) salt;Ethanol, tantalum(5+) salt;Tantalum ethoxide;Pentaethoxytantalum;Pentaethyl tantalate;Tantalum pentaethoxide;Tantalum pentethoxide;Ditantalum decaethoxide;Tantalum ethylate;Tantalum pentaethylate;Tantalum(V) ethoxide;Tantalum(5+) ethoxide",
    "duplicated_cas_no": "2697-26-9;38983-79-8;676578-85-1",
    "SMILES": "C(C)O.[Ta]",
    "meta_data": {
        "InChI": "InChI=1S/C2H6O.Ta/c1-2-3;/h3H,2H2,1H3;",
        "InChIKey": null,
        "Canonical SMILES": "[Ta].OCC",
        "Molecular Formula": "C<sub>2</sub>H<sub>6</sub>O.<sup>1</sup>/<sub>5</sub>Ta",
        "Molecular Mass": "",
        "Boiling Point": "145 °C @ Press: 0.1 Torr",
        "Melting Point": "18-19 °C",
        "Density": "1.580 g/cm³"
    }
}