{
    "cas_no": "1883-09-6",
    "key_name": "<span class=\"text-smallcaps\">L</span>-2,4-Diaminobutyric acid dihydrochloride",
    "cn_name": "L-2,4-二氨基丁酸二盐酸盐;",
    "alternate_name": "Butanoic acid, 2,4-diamino-, hydrochloride (1:2), (2<em>S</em>)-;Butyric acid, 2,4-diamino-, dihydrochloride, <span class=\"text-smallcaps\">L</span>-;Butanoic acid, 2,4-diamino-, dihydrochloride, (<em>S</em>)-;Butanoic acid, 2,4-diamino-, dihydrochloride, (2<em>S</em>)-;<span class=\"text-smallcaps\">L</span>-2,4-Diaminobutyric acid dihydrochloride;<span class=\"text-smallcaps\">L</span>-2,4-Diaminobutanoic acid dihydrochloride;(2S)-2,4-Diaminobutanoic acid dihydrochloride;<span class=\"text-smallcaps\">L</span>-Dab-OH dihydrochloride",
    "duplicated_cas_no": "",
    "SMILES": "[C@H](CCN)(C(O)=O)N.Cl",
    "meta_data": {
        "InChI": "InChI=1S/C4H10N2O2.2ClH/c5-2-1-3(6)4(7)8;;/h3H,1-2,5-6H2,(H,7,8);2*1H/t3-;;/m0../s1",
        "InChIKey": null,
        "Canonical SMILES": "Cl.O=C(O)C(N)CCN",
        "Molecular Formula": "C<sub>4</sub>H<sub>10</sub>N<sub>2</sub>O<sub>2</sub>.2ClH",
        "Molecular Mass": "",
        "Melting Point": "195-196 °C"
    }
}