{
    "cas_no": "6136-37-4",
    "key_name": "1-Methylxanthine",
    "cn_name": "1-甲基黄嘌呤;",
    "alternate_name": "1<em>H</em>-Purine-2,6-dione, 3,9-dihydro-1-methyl-;Xanthine, 1-methyl-;1<em>H</em>-Purine-2,6-dione, 3,7-dihydro-1-methyl-;3,9-Dihydro-1-methyl-1<em>H</em>-purine-2,6-dione;1-Methylxanthine;1-Methyl-3,7-dihydro-purine-2,6-dione;1-Methyl-2,3,6,9-tetrahydro-1<em>H</em>-purine-2,6-dione;2-Hydroxy-1-methyl-6,9-dihydro-1<em>H</em>-purin-6-one",
    "duplicated_cas_no": "",
    "SMILES": "O=C1C2=C(NC(=O)N1C)N=CN2",
    "meta_data": {
        "InChI": "InChI=1S/C6H6N4O2/c1-10-5(11)3-4(8-2-7-3)9-6(10)12/h2H,1H3,(H,7,8)(H,9,12)",
        "InChIKey": null,
        "Canonical SMILES": "O=C1NC=2N=CNC2C(=O)N1C",
        "Molecular Formula": "C<sub>6</sub>H<sub>6</sub>N<sub>4</sub>O<sub>2</sub>",
        "Molecular Mass": "166.14",
        "Melting Point": "335 °C (decomp)"
    }
}