{
    "cas_no": "2650-50-2",
    "key_name": "1-Propanaminium, <em>N</em>,<em>N</em>,<em>N</em>-trimethyl-, bromide (1:1)",
    "cn_name": null,
    "alternate_name": "1-Propanaminium, <em>N</em>,<em>N</em>,<em>N</em>-trimethyl-, bromide (1:1);Ammonium, trimethylpropyl-, bromide;1-Propanaminium, <em>N</em>,<em>N</em>,<em>N</em>-trimethyl-, bromide;Trimethylpropylammonium bromide;Propyltrimethylammonium bromide;<em>N</em>,<em>N</em>,<em>N</em>-Trimethyl-<em>N</em>-propylammonium bromide",
    "duplicated_cas_no": "",
    "SMILES": "C([N+](C)(C)C)CC.[Br-]",
    "meta_data": {
        "InChI": "InChI=1S/C6H16N.BrH/c1-5-6-7(2,3)4;/h5-6H2,1-4H3;1H/q+1;/p-1",
        "InChIKey": null,
        "Canonical SMILES": "[Br-].CCC[N+](C)(C)C",
        "Molecular Formula": "C<sub>6</sub>H<sub>16</sub>N.Br",
        "Molecular Mass": "",
        "Melting Point": "242.5-243 °C"
    }
}