{
    "cas_no": "21160-83-8",
    "key_name": "<em>N</em><sup>2</sup>,<em>N</em><sup>6</sup>-Bis[(phenylmethoxy)carbonyl]-<span class=\"text-smallcaps\">L</span>-lysine 2,5-dioxo-1-pyrrolidinyl ester",
    "cn_name": null,
    "alternate_name": "<span class=\"text-smallcaps\">L</span>-Lysine, <em>N</em><sup>2</sup>,<em>N</em><sup>6</sup>-bis[(phenylmethoxy)carbonyl]-, 2,5-dioxo-1-pyrrolidinyl ester;Succinimide, <em>N</em>-[(<em>N</em><sup>2</sup>,<em>N</em><sup>6</sup>-dicarboxy-<span class=\"text-smallcaps\">L</span>-lysyl)oxy]-, dibenzyl ester;Carbamic acid, [1-[[(2,5-dioxo-1-pyrrolidinyl)oxy]carbonyl]-1,5-pentanediyl]bis-, bis(phenylmethyl) ester, (<em>S</em>)-;Carbamic acid, [(1<em>S</em>)-1-[[(2,5-dioxo-1-pyrrolidinyl)oxy]carbonyl]-1,5-pentanediyl]bis-, bis(phenylmethyl) ester;<em>N</em><sup>2</sup>,<em>N</em><sup>6</sup>-Bis[(phenylmethoxy)carbonyl]-<span class=\"text-smallcaps\">L</span>-lysine 2,5-dioxo-1-pyrrolidinyl ester;<em>N</em><sup>α</sup>,<em>N</em><sup>ε</sup>-Dibenzyloxycarbonyl-<span class=\"text-smallcaps\">L</span>-lysine <em>N</em>-hydroxysuccinimide ester;NSC 250409;(2,5-Dioxopyrrolidin-1-yl) (2S)-2,6-bis(phenylmethoxycarbonylamino)hexanoate",
    "duplicated_cas_no": "",
    "SMILES": "O(C([C@@H](NC(OCC1=CC=CC=C1)=O)CCCCNC(OCC2=CC=CC=C2)=O)=O)N3C(=O)CCC3=O",
    "meta_data": {
        "InChI": "InChI=1S/C26H29N3O8/c30-22-14-15-23(31)29(22)37-24(32)21(28-26(34)36-18-20-11-5-2-6-12-20)13-7-8-16-27-25(33)35-17-19-9-3-1-4-10-19/h1-6,9-12,21H,7-8,13-18H2,(H,27,33)(H,28,34)/t21-/m0/s1",
        "InChIKey": null,
        "Canonical SMILES": "O=C(OCC=1C=CC=CC1)NCCCCC(NC(=O)OCC=2C=CC=CC2)C(=O)ON3C(=O)CCC3=O",
        "Molecular Formula": "C<sub>26</sub>H<sub>29</sub>N<sub>3</sub>O<sub>8</sub>",
        "Molecular Mass": "511.52",
        "Melting Point": "112-113 °C"
    }
}