{
    "cas_no": "4903-09-7",
    "key_name": "3-Chloro-4-methoxybenzaldehyde",
    "cn_name": "3-氯-4-甲氧基苯甲醛;",
    "alternate_name": "Benzaldehyde, 3-chloro-4-methoxy-;<em>p</em>-Anisaldehyde, 3-chloro-;3-Chloro-4-methoxybenzaldehyde;4-Methoxy-3-chlorobenzaldehyde;3-Chloro-<em>p</em>-anisaldehyde",
    "duplicated_cas_no": "",
    "SMILES": "C(=O)C1=CC(Cl)=C(OC)C=C1",
    "meta_data": {
        "InChI": "InChI=1S/C8H7ClO2/c1-11-8-3-2-6(5-10)4-7(8)9/h2-5H,1H3",
        "InChIKey": null,
        "Canonical SMILES": "O=CC1=CC=C(OC)C(Cl)=C1",
        "Molecular Formula": "C<sub>8</sub>H<sub>7</sub>ClO<sub>2</sub>",
        "Molecular Mass": "170.59",
        "Boiling Point": "128 °C @ Press: 5 Torr",
        "Melting Point": "53 °C"
    }
}