{
    "cas_no": "19013-11-7",
    "key_name": "4-Methyl-3-nitrobenzamide",
    "cn_name": "3-硝基-4-甲基苯甲酰胺;",
    "alternate_name": "Benzamide, 4-methyl-3-nitro-;<em>p</em>-Toluamide, 3-nitro-;4-Methyl-3-nitrobenzamide",
    "duplicated_cas_no": "",
    "SMILES": "N(=O)(=O)C1=CC(C(N)=O)=CC=C1C",
    "meta_data": {
        "InChI": "InChI=1S/C8H8N2O3/c1-5-2-3-6(8(9)11)4-7(5)10(12)13/h2-4H,1H3,(H2,9,11)",
        "InChIKey": null,
        "Canonical SMILES": "O=C(N)C1=CC=C(C(=C1)N(=O)=O)C",
        "Molecular Formula": "C<sub>8</sub>H<sub>8</sub>N<sub>2</sub>O<sub>3</sub>",
        "Molecular Mass": "180.16",
        "Melting Point": "168-169 °C"
    }
}