{
    "cas_no": "6285-06-9",
    "key_name": "3-Ethyl-1-pentyn-3-ol",
    "cn_name": "3-乙基-1-戊炔-3-醇;",
    "alternate_name": "1-Pentyn-3-ol, 3-ethyl-;3-Ethyl-1-pentyn-3-ol;3-Pentanol, 3-ethynyl-;Diethylethynylcarbinol;3-Ethyl-1-pentyne-3-ol;NSC 5588",
    "duplicated_cas_no": "",
    "SMILES": "C(CC)(CC)(C#C)O",
    "meta_data": {
        "InChI": "InChI=1S/C7H12O/c1-4-7(8,5-2)6-3/h1,8H,5-6H2,2-3H3",
        "InChIKey": null,
        "Canonical SMILES": "C#CC(O)(CC)CC",
        "Molecular Formula": "C<sub>7</sub>H<sub>12</sub>O",
        "Molecular Mass": "112.17",
        "Boiling Point": "138 °C",
        "Density": "0.8691 g/cm³ @ Temp: 20 °C"
    }
}