{
    "cas_no": "10192-62-8",
    "key_name": "Bisphenol A diacetate",
    "cn_name": null,
    "alternate_name": "Phenol, 4,4′-(1-methylethylidene)bis-, 1,1′-diacetate;Phenol, 4,4′-isopropylidenedi-, diacetate;Phenol, 4,4′-(1-methylethylidene)bis-, diacetate;Bisphenol A diacetate;4,4′-Isopropylidenediphenol diacetate;2,2-Bis(4-acetoxyphenyl)propane;4,4′-Isopropylidenediphenyl diacetate;[4-[2-(4-Acetyloxyphenyl)propan-2-yl]phenyl] acetate",
    "duplicated_cas_no": "",
    "SMILES": "C(C)(C)(C1=CC=C(OC(C)=O)C=C1)C2=CC=C(OC(C)=O)C=C2",
    "meta_data": {
        "InChI": "InChI=1S/C19H20O4/c1-13(20)22-17-9-5-15(6-10-17)19(3,4)16-7-11-18(12-8-16)23-14(2)21/h5-12H,1-4H3",
        "InChIKey": null,
        "Canonical SMILES": "O=C(OC1=CC=C(C=C1)C(C2=CC=C(OC(=O)C)C=C2)(C)C)C",
        "Molecular Formula": "C<sub>19</sub>H<sub>20</sub>O<sub>4</sub>",
        "Molecular Mass": "312.36",
        "Boiling Point": "213-215 °C @ Press: 3 Torr",
        "Melting Point": "79.5-81.5 °C"
    }
}