{
    "cas_no": "7783-90-6",
    "key_name": "Silver chloride",
    "cn_name": "氯化银;",
    "alternate_name": "Silver chloride (AgCl);Silver chloride;Silver monochloride;Silver(I) chloride;JMAC LP;JMAC-LP 10%;RDAGCL 50;Dorafresh AG;Silvertec;Ultra Fresh Silpure FBR 5;iSyS AG;Biostat T;Biostat B;Biostat L;Biostat K;JM Acticare;RUCO-BAC AGP;Schoeller-protec SIL B;JMAC Composite PG;Sanitized T 27-22 Silver;Silpure FBR 5;Acticide AGT 2;Argentous chloride;AgCl (Silver monochloride);LP 10;Silaide",
    "duplicated_cas_no": "",
    "SMILES": "[Ag]Cl",
    "meta_data": {
        "InChI": "InChI=1S/Ag.ClH/h;1H/q+1;/p-1",
        "InChIKey": null,
        "Canonical SMILES": "Cl[Ag]",
        "Molecular Formula": "AgCl",
        "Molecular Mass": "",
        "Melting Point": "455 °C",
        "Density": "5.501 g/cm³"
    }
}