{
    "cas_no": "92-00-2",
    "key_name": "2,2′-[(3-Chlorophenyl)imino]bis[ethanol]",
    "cn_name": "3-氯-N,N-二(2-羟基乙基)苯胺;间氯双羟乙基苯胺;",
    "alternate_name": "Ethanol, 2,2′-[(3-chlorophenyl)imino]bis-;Ethanol, 2,2′-[(<em>m</em>-chlorophenyl)imino]di-;2,2′-[(3-Chlorophenyl)imino]bis[ethanol];<em>N</em>-(3-Chlorophenyl)diethanolamine;2,2′-[(<em>m</em>-Chlorophenyl)imino]diethanol;<em>N</em>-(<em>m</em>-Chlorophenyl)diethanolamine;3-Chloro-<em>N</em>,<em>N</em>-bis(2-hydroxyethyl)aniline;<em>N</em>,<em>N</em>-Bis(hydroxyethyl)-3-chloroaniline;<em>N</em>,<em>N</em>-Bis(β-hydroxyethyl)-<em>m</em>-chloroaniline;<em>m</em>-Chloro-<em>N</em>,<em>N</em>-bis-β-hydroxyethylaniline;<em>N</em>,<em>N</em>-Bis(2-hydroxyethyl)-<em>m</em>-chloroaniline;<em>m</em>-Chloro-<em>N</em>,<em>N</em>-bis(2-hydroxyethyl)aniline;<em>N</em>,<em>N</em>-Bis(2-hydroxyethyl)-3-chloroaniline;NSC 58170;2,2′-((3-Chlorophenyl)azanediyl)diethanol;2-[(3-Chlorophenyl)(2-hydroxyethyl)amino]ethan-1-ol;2-[3-Chloro-<em>N</em>-(2-hydroxyethyl)anilino]ethanol",
    "duplicated_cas_no": "",
    "SMILES": "N(CCO)(CCO)C1=CC(Cl)=CC=C1",
    "meta_data": {
        "InChI": "InChI=1S/C10H14ClNO2/c11-9-2-1-3-10(8-9)12(4-6-13)5-7-14/h1-3,8,13-14H,4-7H2",
        "InChIKey": null,
        "Canonical SMILES": "ClC1=CC=CC(=C1)N(CCO)CCO",
        "Molecular Formula": "C<sub>10</sub>H<sub>14</sub>ClNO<sub>2</sub>",
        "Molecular Mass": "215.68",
        "Boiling Point": "208-213 °C @ Press: 4 Torr",
        "Melting Point": "88-92 °C"
    }
}