{
    "cas_no": "937-63-3",
    "key_name": "<em>O</em>-(4-Methylphenyl) carbonochloridothioate",
    "cn_name": "对甲苯基氯化亚硫代甲酸;",
    "alternate_name": "Carbonochloridothioic acid, <em>O</em>-(4-methylphenyl) ester;Formic acid, chlorothio-, <em>O</em>-<em>p</em>-tolyl ester;<em>O</em>-(4-Methylphenyl) carbonochloridothioate;<em>p</em>-Tolyloxythiocarbonyl chloride;4-Methylphenyl chlorothioformate;<em>p</em>-Tolyl chlorothionoformate;<em>O</em>-4-Methylphenyl chlorothioformate",
    "duplicated_cas_no": "",
    "SMILES": "O(C(Cl)=S)C1=CC=C(C)C=C1",
    "meta_data": {
        "InChI": "InChI=1S/C8H7ClOS/c1-6-2-4-7(5-3-6)10-8(9)11/h2-5H,1H3",
        "InChIKey": null,
        "Canonical SMILES": "S=C(Cl)OC1=CC=C(C=C1)C",
        "Molecular Formula": "C<sub>8</sub>H<sub>7</sub>ClOS",
        "Molecular Mass": "186.66",
        "Boiling Point": "115-119 °C @ Press: 13 Torr"
    }
}