{
    "cas_no": "698-69-1",
    "key_name": "4-Chloro-<em>N</em>,<em>N</em>-dimethylbenzenamine",
    "cn_name": null,
    "alternate_name": "Benzenamine, 4-chloro-<em>N</em>,<em>N</em>-dimethyl-;Aniline, <em>p</em>-chloro-<em>N</em>,<em>N</em>-dimethyl-;4-Chloro-<em>N</em>,<em>N</em>-dimethylbenzenamine;<em>N</em>,<em>N</em>-Dimethyl-<em>p</em>-chloroaniline;<em>p</em>-Chloro-<em>N</em>,<em>N</em>-dimethylaniline;<em>p</em>-Chlorophenyldimethylamine;4-Chloro-<em>N</em>,<em>N</em>-dimethylaniline;<em>N</em>,<em>N</em>-Dimethyl-4-chloroaniline;<em>p</em>-<em>N</em>,<em>N</em>-Dimethylaminochlorobenzene;4-(Dimethylamino)chlorobenzene;1-Chloro-4-(dimethylamino)benzene",
    "duplicated_cas_no": "",
    "SMILES": "N(C)(C)C1=CC=C(Cl)C=C1",
    "meta_data": {
        "InChI": "InChI=1S/C8H10ClN/c1-10(2)8-5-3-7(9)4-6-8/h3-6H,1-2H3",
        "InChIKey": null,
        "Canonical SMILES": "ClC1=CC=C(C=C1)N(C)C",
        "Molecular Formula": "C<sub>8</sub>H<sub>10</sub>ClN",
        "Molecular Mass": "155.62",
        "Boiling Point": "231 °C",
        "Melting Point": "35.5 °C"
    }
}