{
    "cas_no": "25442-42-6",
    "key_name": "(2<em>R</em>,3<em>R</em>,5<em>R</em>)-2,3-Dihydro-8-methyl-3-[(triphenylmethoxy)methyl]-2,5-methano-5<em>H</em>,9<em>H</em>-pyrimido[2,1-<em>b</em>][1,5,3]dioxazepin-9-one",
    "cn_name": "5\"-三苯甲基-2\"-脱氧-2,3\"-双脱氢胸苷;5\"-O-三苯甲基-2,3\"-脱水胸苷;",
    "alternate_name": "2,5-Methano-5<em>H</em>,9<em>H</em>-pyrimido[2,1-<em>b</em>][1,5,3]dioxazepin-9-one, 2,3-dihydro-8-methyl-3-[(triphenylmethoxy)methyl]-, (2<em>R</em>,3<em>R</em>,5<em>R</em>)-;2,5-Methano-5<em>H</em>,9<em>H</em>-pyrimido[2,1-<em>b</em>][1,5,3]dioxazepin-9-one, 2,3-dihydro-8-methyl-3-[(trityloxy)methyl]-;2,5-Methano-5<em>H</em>,9<em>H</em>-pyrimido[2,1-<em>b</em>][1,5,3]dioxazepin-9-one, 2,3-dihydro-8-methyl-3-[(triphenylmethoxy)methyl]-, [2<em>R</em>-(2α,3β,5α)]-;Thymine, 2,3′-anhydro-1-(2-deoxy-5-<em>O</em>-trityl-β-<span class=\"text-smallcaps\">D</span>-<em>threo</em>-pentofuranosyl)-;(2<em>R</em>,3<em>R</em>,5<em>R</em>)-2,3-Dihydro-8-methyl-3-[(triphenylmethoxy)methyl]-2,5-methano-5<em>H</em>,9<em>H</em>-pyrimido[2,1-<em>b</em>][1,5,3]dioxazepin-9-one",
    "duplicated_cas_no": "121399-30-2",
    "SMILES": "C(OC[C@@H]1[C@]2(C[C@@](O1)(N3C(O2)=NC(=O)C(C)=C3)[H])[H])(C4=CC=CC=C4)(C5=CC=CC=C5)C6=CC=CC=C6",
    "meta_data": {
        "InChI": "InChI=1S/C29H26N2O4/c1-20-18-31-26-17-24(35-28(31)30-27(20)32)25(34-26)19-33-29(21-11-5-2-6-12-21,22-13-7-3-8-14-22)23-15-9-4-10-16-23/h2-16,18,24-26H,17,19H2,1H3/t24-,25-,26-/m1/s1",
        "InChIKey": null,
        "Canonical SMILES": "O=C1N=C2OC3CC(OC3COC(C=4C=CC=CC4)(C=5C=CC=CC5)C=6C=CC=CC6)N2C=C1C",
        "Molecular Formula": "C<sub>29</sub>H<sub>26</sub>N<sub>2</sub>O<sub>4</sub>",
        "Molecular Mass": "466.53",
        "Melting Point": "229-230 °C"
    }
}