{
    "cas_no": "58749-51-2",
    "key_name": "2-(2-Isocyanatoethyl)thiophene",
    "cn_name": null,
    "alternate_name": "Thiophene, 2-(2-isocyanatoethyl)-;2-(2-Isocyanatoethyl)thiophene;2-(2-isocyanatoethyl)thiophene;2-(Thien-2-yl)ethyl isocyanate;2-(Thiophen-2-yl)ethyl isocyanate",
    "duplicated_cas_no": "",
    "SMILES": "C(CN=C=O)C1=CC=CS1",
    "meta_data": {
        "InChI": "InChI=1S/C7H7NOS/c9-6-8-4-3-7-2-1-5-10-7/h1-2,5H,3-4H2",
        "InChIKey": null,
        "Canonical SMILES": "O=C=NCCC=1SC=CC1",
        "Molecular Formula": "C<sub>7</sub>H<sub>7</sub>NOS",
        "Molecular Mass": "153.20",
        "Boiling Point": "127-135 °C @ Press: 15 Torr"
    }
}