{
    "cas_no": "155-04-4",
    "key_name": "Zinc 2-mercaptobenzothiazole",
    "cn_name": "2-巯基苯并噻唑锌盐;促进剂ZMBT;",
    "alternate_name": "2(3<em>H</em>)-Benzothiazolethione, zinc salt (2:1);2(3<em>H</em>)-Benzothiazolethione, zinc salt;Benzothiazole, 2-mercapto-, zinc salt;2-Mercaptobenzothiazole zinc salt;OXAF;Pennac ZT;Tisperse MB 58;Zenite;Zenite Special;Zetax;Zinc mercaptobenzothiazolate;Zinc 2-mercaptobenzothiazole;Zinc mercaptobenzothiazole;ZMBT;Zinc benzothiazolylmercaptide;Zinc 2-benzothiazolethiolate;Mercaptobenzothiazole zinc salt;Bis(2-benzothiazolylthio)zinc;Zinc benzothiazol-2-ylthiolate;Zinc mercaptobenzothiazole salt;Zinc bis(mercaptobenzothiazole);Bis(mercaptobenzothiazolato)zinc;Zinc bis(2-mercaptobenzothiazole);Zinc benzothiazolethiolate;2-Benzothiazolethiol zinc salt;Hermat Zn-MBT;Vulkacit ZM;Bis(benzothiazole-2-thiolato)zinc;Soxinol MZ;Nocceler MZ;Sanceler MZ;Perkacit ZMBT;MZ;Accelerator MZ;Curekind ZMBT 15;Zinc 2(3<em>H</em>)-benzothiazolethione",
    "duplicated_cas_no": "96380-91-5;12564-44-2;16529-10-5",
    "SMILES": "S=C1NC=2C(S1)=CC=CC2.[Zn]",
    "meta_data": {
        "InChI": "InChI=1S/C7H5NS2.Zn/c9-7-8-5-3-1-2-4-6(5)10-7;/h1-4H,(H,8,9);",
        "InChIKey": null,
        "Canonical SMILES": "[Zn].S=C1SC=2C=CC=CC2N1",
        "Molecular Formula": "C<sub>7</sub>H<sub>5</sub>NS<sub>2</sub>.<sup>1</sup>/<sub>2</sub>Zn",
        "Molecular Mass": "",
        "Melting Point": "330 °C",
        "Density": "1.7 g/cm³ @ Temp: 25 °C"
    }
}