{
    "cas_no": "19250-09-0",
    "key_name": "<em>N</em>-(3,4-Dichlorophenyl)thiourea",
    "cn_name": "1-(3,4-二氯苯基)-2-硫脲;3,4-二氯苯(基)硫脲;",
    "alternate_name": "Thiourea, <em>N</em>-(3,4-dichlorophenyl)-;Urea, 1-(3,4-dichlorophenyl)-2-thio-;Thiourea, (3,4-dichlorophenyl)-;<em>N</em>-(3,4-Dichlorophenyl)thiourea;(3,4-Dichlorophenyl)thiourea;Amino[(3,4-dichlorophenyl)amino]methane-1-thione;1-(3,4-Dichlorophenyl)thiourea",
    "duplicated_cas_no": "",
    "SMILES": "N(C(N)=S)C1=CC(Cl)=C(Cl)C=C1",
    "meta_data": {
        "InChI": "InChI=1S/C7H6Cl2N2S/c8-5-2-1-4(3-6(5)9)11-7(10)12/h1-3H,(H3,10,11,12)",
        "InChIKey": null,
        "Canonical SMILES": "S=C(N)NC1=CC=C(Cl)C(Cl)=C1",
        "Molecular Formula": "C<sub>7</sub>H<sub>6</sub>Cl<sub>2</sub>N<sub>2</sub>S",
        "Molecular Mass": "221.11",
        "Melting Point": "203-204 °C"
    }
}