{
    "cas_no": "24332-20-5",
    "key_name": "1,1,2-Trimethoxyethane",
    "cn_name": "1,1,2-三甲氧基乙烷;甲氧基乙醛缩二甲醇;",
    "alternate_name": "Ethane, 1,1,2-trimethoxy-;Acetaldehyde, methoxy-, dimethyl acetal;1,1,2-Trimethoxyethane;Methoxyacetaldehyde dimethyl acetal;1,1,2-Tris(methoxy)ethane;2-Methoxyacetaldehyde dimethyl acetal",
    "duplicated_cas_no": "",
    "SMILES": "C(COC)(OC)OC",
    "meta_data": {
        "InChI": "InChI=1S/C5H12O3/c1-6-4-5(7-2)8-3/h5H,4H2,1-3H3",
        "InChIKey": null,
        "Canonical SMILES": "O(C)CC(OC)OC",
        "Molecular Formula": "C<sub>5</sub>H<sub>12</sub>O<sub>3</sub>",
        "Molecular Mass": "120.15",
        "Boiling Point": "56-59 °C @ Press: 56 Torr"
    }
}