{
    "cas_no": "609-66-5",
    "key_name": "2-Chlorobenzamide",
    "cn_name": "2-氯苯甲酰胺;邻氯苯甲酰胺;",
    "alternate_name": "Benzamide, 2-chloro-;Benzamide, <em>o</em>-chloro-;2-Chlorobenzamide;<em>o</em>-Chlorobenzamide;NSC 406895",
    "duplicated_cas_no": "",
    "SMILES": "C(N)(=O)C1=C(Cl)C=CC=C1",
    "meta_data": {
        "InChI": "InChI=1S/C7H6ClNO/c8-6-4-2-1-3-5(6)7(9)10/h1-4H,(H2,9,10)",
        "InChIKey": null,
        "Canonical SMILES": "O=C(N)C=1C=CC=CC1Cl",
        "Molecular Formula": "C<sub>7</sub>H<sub>6</sub>ClNO",
        "Molecular Mass": "155.58",
        "Melting Point": "143 °C"
    }
}