{
    "cas_no": "2642-63-9",
    "key_name": "3′,4′-Dichloroacetophenone",
    "cn_name": "3,4-二氯苯乙酮;3\",4\"-二氯苯乙酮;",
    "alternate_name": "Ethanone, 1-(3,4-dichlorophenyl)-;Acetophenone, 3′,4′-dichloro-;1-(3,4-Dichlorophenyl)ethanone;3′,4′-Dichloroacetophenone;NSC 403673;3′,4′-Dichlorohypnone;1-(3,4-Dichlorophenyl)ethan-1-one",
    "duplicated_cas_no": "",
    "SMILES": "C(C)(=O)C1=CC(Cl)=C(Cl)C=C1",
    "meta_data": {
        "InChI": "InChI=1S/C8H6Cl2O/c1-5(11)6-2-3-7(9)8(10)4-6/h2-4H,1H3",
        "InChIKey": null,
        "Canonical SMILES": "O=C(C1=CC=C(Cl)C(Cl)=C1)C",
        "Molecular Formula": "C<sub>8</sub>H<sub>6</sub>Cl<sub>2</sub>O",
        "Molecular Mass": "189.04",
        "Boiling Point": "135 °C @ Press: 12 Torr",
        "Melting Point": "76 °C"
    }
}