{
    "cas_no": "13637-63-3",
    "key_name": "Chlorine fluoride (ClF<sub>5</sub>)",
    "cn_name": "五氟化氯;",
    "alternate_name": "Chlorine fluoride (ClF<sub>5</sub>);Chlorine pentafluoride",
    "duplicated_cas_no": "",
    "SMILES": "Cl(F)(F)(F)(F)F",
    "meta_data": {
        "InChI": "InChI=1S/ClF5/c2-1(3,4,5)6",
        "InChIKey": null,
        "Canonical SMILES": "FCl(F)(F)(F)F",
        "Molecular Formula": "ClF<sub>5</sub>",
        "Molecular Mass": "130.45",
        "Boiling Point": "-12.9 °C"
    }
}