{
    "cas_no": "3524-75-2",
    "key_name": "Allylcyclopentane",
    "cn_name": "丙稀基环戊烷;",
    "alternate_name": "Cyclopentane, 2-propen-1-yl-;Cyclopentane, allyl-;Cyclopentane, 2-propenyl-;2-Propen-1-ylcyclopentane;1-Propene, 3-cyclopentyl-;Allylcyclopentane;NSC 74152;3-Cyclopentyl-1-propene",
    "duplicated_cas_no": "",
    "SMILES": "C(C=C)C1CCCC1",
    "meta_data": {
        "InChI": "InChI=1S/C8H14/c1-2-5-8-6-3-4-7-8/h2,8H,1,3-7H2",
        "InChIKey": null,
        "Canonical SMILES": "C=CCC1CCCC1",
        "Molecular Formula": "C<sub>8</sub>H<sub>14</sub>",
        "Molecular Mass": "110.20",
        "Boiling Point": "125 °C",
        "Melting Point": "-110.7 °C",
        "Density": "0.793 g/cm³ @ Temp: 23 °C"
    }
}