{
    "cas_no": "452-66-4",
    "key_name": "4-Chloro-1-fluoro-2-methylbenzene",
    "cn_name": "5-氯-2-氟甲苯;",
    "alternate_name": "Benzene, 4-chloro-1-fluoro-2-methyl-;Toluene, 5-chloro-2-fluoro-;4-Chloro-1-fluoro-2-methylbenzene;2-Fluoro-5-chlorotoluene;5-Chloro-2-fluorotoluene",
    "duplicated_cas_no": "",
    "SMILES": "CC1=C(F)C=CC(Cl)=C1",
    "meta_data": {
        "InChI": "InChI=1S/C7H6ClF/c1-5-4-6(8)2-3-7(5)9/h2-4H,1H3",
        "InChIKey": null,
        "Canonical SMILES": "FC1=CC=C(Cl)C=C1C",
        "Molecular Formula": "C<sub>7</sub>H<sub>6</sub>ClF",
        "Molecular Mass": "144.57",
        "Boiling Point": "164-166 °C"
    }
}