{
    "cas_no": "168828-81-7",
    "key_name": "[3-Fluoro-4-(4-morpholinyl)phenyl]carbamic acid phenylmethyl ester",
    "cn_name": null,
    "alternate_name": "Carbamic acid, <em>N</em>-[3-fluoro-4-(4-morpholinyl)phenyl]-, phenylmethyl ester;Carbamic acid, [3-fluoro-4-(4-morpholinyl)phenyl]-, phenylmethyl ester;<em>N</em>-Benzyloxycarbonyl-3-fluoro-4-morpholinoaniline;[3-Fluoro-4-(4-morpholinyl)phenyl]carbamic acid phenylmethyl ester;Benzyl 3-fluoro-4-(4-morpholinyl)phenylcarbamate;<em>N</em>-(Benzyloxycarbonyl)-3-fluoro-4-(4-morpholinyl)aniline;(3-Fluoro-4-morpholin-4-ylphenyl)carbamic acid benzyl ester",
    "duplicated_cas_no": "",
    "SMILES": "FC1=C(C=CC(NC(OCC2=CC=CC=C2)=O)=C1)N3CCOCC3",
    "meta_data": {
        "InChI": "InChI=1S/C18H19FN2O3/c19-16-12-15(6-7-17(16)21-8-10-23-11-9-21)20-18(22)24-13-14-4-2-1-3-5-14/h1-7,12H,8-11,13H2,(H,20,22)",
        "InChIKey": null,
        "Canonical SMILES": "O=C(OCC=1C=CC=CC1)NC2=CC=C(C(F)=C2)N3CCOCC3",
        "Molecular Formula": "C<sub>18</sub>H<sub>19</sub>FN<sub>2</sub>O<sub>3</sub>",
        "Molecular Mass": "330.35",
        "Melting Point": "122.5-123.7 °C"
    }
}