{
    "cas_no": "10431-98-8",
    "key_name": "2-Ethyl-2-oxazoline",
    "cn_name": "2-乙基-2-噁唑啉;2-乙基-2-恶唑啉;2-乙基-4,5-二氢噁唑;",
    "alternate_name": "Oxazole, 2-ethyl-4,5-dihydro-;2-Oxazoline, 2-ethyl-;2-Ethyl-4,5-dihydrooxazole;2-Ethyl-2-oxazoline;2-Ethyloxazoline;NSC 136557",
    "duplicated_cas_no": "114730-75-5;2072113-68-7",
    "SMILES": "C(C)C1=NCCO1",
    "meta_data": {
        "InChI": "InChI=1S/C5H9NO/c1-2-5-6-3-4-7-5/h2-4H2,1H3",
        "InChIKey": null,
        "Canonical SMILES": "N1=C(OCC1)CC",
        "Molecular Formula": "C<sub>5</sub>H<sub>9</sub>NO",
        "Molecular Mass": "99.13",
        "Boiling Point": "56-58 °C @ Press: 100 Torr"
    }
}