{
    "cas_no": "1518-75-8",
    "key_name": "3-Propylthiophene",
    "cn_name": "3-丙基噻吩;",
    "alternate_name": "Thiophene, 3-propyl-;3-Propylthiophene",
    "duplicated_cas_no": "",
    "SMILES": "C(CC)C=1C=CSC1",
    "meta_data": {
        "InChI": "InChI=1S/C7H10S/c1-2-3-7-4-5-8-6-7/h4-6H,2-3H2,1H3",
        "InChIKey": null,
        "Canonical SMILES": "S1C=CC(=C1)CCC",
        "Molecular Formula": "C<sub>7</sub>H<sub>10</sub>S",
        "Molecular Mass": "126.22",
        "Boiling Point": "160-162 °C",
        "Melting Point": "-88.13 °C",
        "Density": "0.9733 g/cm³ @ Temp: 20 °C"
    }
}