{
    "cas_no": "5830-30-8",
    "key_name": "<em>N</em>,<em>N</em>-Dimethylhexanamide",
    "cn_name": "N,N-二甲基己酰胺;N,N-二甲基己酰胺;",
    "alternate_name": "Hexanamide, <em>N</em>,<em>N</em>-dimethyl-;Caproamide, <em>N</em>,<em>N</em>-dimethyl-;<em>N</em>,<em>N</em>-Dimethylhexanamide;<em>N</em>,<em>N</em>-Dimethylcaproamide;Avignasol",
    "duplicated_cas_no": "",
    "SMILES": "C(CCCCC)(N(C)C)=O",
    "meta_data": {
        "InChI": "InChI=1S/C8H17NO/c1-4-5-6-7-8(10)9(2)3/h4-7H2,1-3H3",
        "InChIKey": null,
        "Canonical SMILES": "O=C(N(C)C)CCCCC",
        "Molecular Formula": "C<sub>8</sub>H<sub>17</sub>NO",
        "Molecular Mass": "143.23",
        "Boiling Point": "123 °C @ Press: 25 Torr"
    }
}