{
    "cas_no": "19872-52-7",
    "key_name": "4-Mercapto-4-methyl-2-pentanone",
    "cn_name": "4-巯基-4-甲基-2-戊酮;4-甲基-4-巯基-2-戊酮;硫甲基戊酮-4,4,2;",
    "alternate_name": "2-Pentanone, 4-mercapto-4-methyl-;4-Mercapto-4-methyl-2-pentanone;4-Methyl-4-mercapto-2-pentanone;2-Mercapto-2-methylpentan-4-one;4-Methyl-4-sulfanylpentan-2-one;4MMP;4-Sulfanyl-4-methylpentan-2-one",
    "duplicated_cas_no": "",
    "SMILES": "C(C(C)(C)S)C(C)=O",
    "meta_data": {
        "InChI": "InChI=1S/C6H12OS/c1-5(7)4-6(2,3)8/h8H,4H2,1-3H3",
        "InChIKey": null,
        "Canonical SMILES": "O=C(C)CC(S)(C)C",
        "Molecular Formula": "C<sub>6</sub>H<sub>12</sub>OS",
        "Molecular Mass": "132.22",
        "Boiling Point": "55 °C @ Press: 12 Torr"
    }
}