{
    "cas_no": "6627-34-5",
    "key_name": "2,5-Dichloro-4-nitrobenzenamine",
    "cn_name": "2,5-二氯-4-硝基苯胺;",
    "alternate_name": "Benzenamine, 2,5-dichloro-4-nitro-;Aniline, 2,5-dichloro-4-nitro-;2,5-Dichloro-4-nitrobenzenamine;2,5-Dichloro-4-nitroaniline;NSC 60645;2,5-Dichloro-4-nitrophenylamine",
    "duplicated_cas_no": "",
    "SMILES": "N(=O)(=O)C1=C(Cl)C=C(N)C(Cl)=C1",
    "meta_data": {
        "InChI": "InChI=1S/C6H4Cl2N2O2/c7-3-2-6(10(11)12)4(8)1-5(3)9/h1-2H,9H2",
        "InChIKey": null,
        "Canonical SMILES": "O=N(=O)C=1C=C(Cl)C(N)=CC1Cl",
        "Molecular Formula": "C<sub>6</sub>H<sub>4</sub>Cl<sub>2</sub>N<sub>2</sub>O<sub>2</sub>",
        "Molecular Mass": "207.01",
        "Melting Point": "153 °C"
    }
}