{
    "cas_no": "868273-06-7",
    "key_name": "5-Chloro-3-ethyl-<em>N</em>-[2-[4-(1-piperidinyl)phenyl]ethyl]-1<em>H</em>-indole-2-carboxamide",
    "cn_name": null,
    "alternate_name": "1<em>H</em>-Indole-2-carboxamide, 5-chloro-3-ethyl-<em>N</em>-[2-[4-(1-piperidinyl)phenyl]ethyl]-;5-Chloro-3-ethyl-<em>N</em>-[2-[4-(1-piperidinyl)phenyl]ethyl]-1<em>H</em>-indole-2-carboxamide;Org 27569",
    "duplicated_cas_no": "",
    "SMILES": "C(C)C=1C=2C(NC1C(NCCC3=CC=C(C=C3)N4CCCCC4)=O)=CC=C(Cl)C2",
    "meta_data": {
        "InChI": "InChI=1S/C24H28ClN3O/c1-2-20-21-16-18(25)8-11-22(21)27-23(20)24(29)26-13-12-17-6-9-19(10-7-17)28-14-4-3-5-15-28/h6-11,16,27H,2-5,12-15H2,1H3,(H,26,29)",
        "InChIKey": null,
        "Canonical SMILES": "O=C(NCCC1=CC=C(C=C1)N2CCCCC2)C=3NC=4C=CC(Cl)=CC4C3CC",
        "Molecular Formula": "C<sub>24</sub>H<sub>28</sub>ClN<sub>3</sub>O",
        "Molecular Mass": "409.95",
        "Melting Point": "178-180 °C"
    }
}