{
    "cas_no": "311-46-6",
    "key_name": "Ethyl 2-(dimethoxyphosphinyl)acetate",
    "cn_name": "乙基磷酰基乙酸二甲酯;",
    "alternate_name": "Acetic acid, 2-(dimethoxyphosphinyl)-, ethyl ester;Acetic acid, phosphono-, 1-ethyl dimethyl ester;Acetic acid, (dimethoxyphosphinyl)-, ethyl ester;Ethyl 2-(dimethoxyphosphinyl)acetate;Ethyl <em>O</em>,<em>O</em>-dimethylphosphonoacetate;Ethyl dimethoxyphosphonoacetate;Ethyl (dimethoxyphosphinyl)acetate;Ethyl (dimethylphosphono)acetate;Ethyl 2-(dimethoxyphosphoryl)acetate",
    "duplicated_cas_no": "130282-34-7",
    "SMILES": "P(CC(OCC)=O)(OC)(OC)=O",
    "meta_data": {
        "InChI": "InChI=1S/C6H13O5P/c1-4-11-6(7)5-12(8,9-2)10-3/h4-5H2,1-3H3",
        "InChIKey": null,
        "Canonical SMILES": "O=C(OCC)CP(=O)(OC)OC",
        "Molecular Formula": "C<sub>6</sub>H<sub>13</sub>O<sub>5</sub>P",
        "Molecular Mass": "196.14",
        "Boiling Point": "134.5-135.0 °C @ Press: 10 Torr",
        "Density": "1.2053 g/cm³ @ Temp: 0 °C"
    }
}