{
    "cas_no": "22068-49-1",
    "key_name": "2-(4′-Hydroxyphenyl)-1,3-dithiolane",
    "cn_name": "4-(1,3-二硫戊环)苯酚;",
    "alternate_name": "Phenol, 4-(1,3-dithiolan-2-yl)-;Phenol, <em>p</em>-1,3-dithiolan-2-yl-;4-(1,3-Dithiolan-2-yl)phenol;2-(4-Hydroxyphenyl)-1,3-dithiolane;2-(4′-Hydroxyphenyl)-1,3-dithiolane;NSC 132849",
    "duplicated_cas_no": "",
    "SMILES": "OC1=CC=C(C=C1)C2SCCS2",
    "meta_data": {
        "InChI": "InChI=1S/C9H10OS2/c10-8-3-1-7(2-4-8)9-11-5-6-12-9/h1-4,9-10H,5-6H2",
        "InChIKey": null,
        "Canonical SMILES": "OC1=CC=C(C=C1)C2SCCS2",
        "Molecular Formula": "C<sub>9</sub>H<sub>10</sub>OS<sub>2</sub>",
        "Molecular Mass": "198.31",
        "Melting Point": "119-120 °C"
    }
}