{
    "cas_no": "1078-28-0",
    "key_name": "6-Methoxy-2-methylquinoline",
    "cn_name": "6-甲氧基-2-甲基喹啉;",
    "alternate_name": "Quinoline, 6-methoxy-2-methyl-;Quinaldine, 6-methoxy-;6-Methoxy-2-methylquinoline;6-Methoxyquinaldine;2-Methyl-6-methoxyquinoline;NSC 15557",
    "duplicated_cas_no": "",
    "SMILES": "O(C)C1=CC2=C(N=C(C)C=C2)C=C1",
    "meta_data": {
        "InChI": "InChI=1S/C11H11NO/c1-8-3-4-9-7-10(13-2)5-6-11(9)12-8/h3-7H,1-2H3",
        "InChIKey": null,
        "Canonical SMILES": "N=1C=2C=CC(OC)=CC2C=CC1C",
        "Molecular Formula": "C<sub>11</sub>H<sub>11</sub>NO",
        "Molecular Mass": "173.21",
        "Boiling Point": "138-139 °C @ Press: 5 Torr",
        "Melting Point": "64-65 °C"
    }
}