{
    "cas_no": "617-62-9",
    "key_name": "2-Methylglutaric acid",
    "cn_name": "2-甲基戊二酸;",
    "alternate_name": "Pentanedioic acid, 2-methyl-;Glutaric acid, 2-methyl-;2-Methylpentanedioic acid;α-Methylglutaric acid;2-Methylglutaric acid;(±)-2-Methylglutaric acid;NSC 408456;NSC 5941;Pentanedioic acid 2-methyl ester",
    "duplicated_cas_no": "18069-17-5",
    "SMILES": "C(CCC(O)=O)(C(O)=O)C",
    "meta_data": {
        "InChI": "InChI=1S/C6H10O4/c1-4(6(9)10)2-3-5(7)8/h4H,2-3H2,1H3,(H,7,8)(H,9,10)",
        "InChIKey": null,
        "Canonical SMILES": "O=C(O)CCC(C(=O)O)C",
        "Molecular Formula": "C<sub>6</sub>H<sub>10</sub>O<sub>4</sub>",
        "Molecular Mass": "146.14",
        "Boiling Point": "195-196 °C @ Press: 12 Torr",
        "Melting Point": "78-80 °C",
        "Density": "1.246 g/cm³"
    }
}