{
    "cas_no": "443-73-2",
    "key_name": "5-Fluoroindole-3-acetic acid",
    "cn_name": "5-氟代吲哚-3-乙酸;5-氟代吲哚-3-乙酸;",
    "alternate_name": "1<em>H</em>-Indole-3-acetic acid, 5-fluoro-;Indole-3-acetic acid, 5-fluoro-;5-Fluoro-1<em>H</em>-indole-3-acetic acid;5-Fluoro-IAA;2-(5-Fluoro-3-indolyl)acetic acid;5-Fluoroindole-3-acetic acid;(5-Fluoroindol-3-yl)acetic acid;2-(5-Fluoro-1<em>H</em>-indol-3-yl)acetic acid;NSC 88616;5-Fluoroindoleacetic acid;(5-Fluoro-1<em>H</em>-indol-3-yl)acetic acid",
    "duplicated_cas_no": "",
    "SMILES": "C(C(O)=O)C=1C=2C(NC1)=CC=C(F)C2",
    "meta_data": {
        "InChI": "InChI=1S/C10H8FNO2/c11-7-1-2-9-8(4-7)6(5-12-9)3-10(13)14/h1-2,4-5,12H,3H2,(H,13,14)",
        "InChIKey": null,
        "Canonical SMILES": "O=C(O)CC1=CNC=2C=CC(F)=CC21",
        "Molecular Formula": "C<sub>10</sub>H<sub>8</sub>FNO<sub>2</sub>",
        "Molecular Mass": "193.17",
        "Melting Point": "138-140 °C"
    }
}