{
    "cas_no": "802-93-7",
    "key_name": "α<sup>1</sup>,α<sup>1</sup>,α<sup>3</sup>,α<sup>3</sup>-Tetrakis(trifluoromethyl)-1,3-benzenedimethanol",
    "cn_name": "1,3-二(1,1,1,3,3,3-六氟-2-丙醇)苯;1,3-双（六氟-羟异丙基）苯;1,3-二(1,1,1,3,3,3-六氟-2-丙醇)苯;1,3-双;",
    "alternate_name": "1,3-Benzenedimethanol, α<sup>1</sup>,α<sup>1</sup>,α<sup>3</sup>,α<sup>3</sup>-tetrakis(trifluoromethyl)-;<em>m</em>-Xylene-α,α′-diol, α,α,α′,α′-tetrakis(trifluoromethyl)-;1,3-Benzenedimethanol, α,α,α′,α′-tetrakis(trifluoromethyl)-;α<sup>1</sup>,α<sup>1</sup>,α<sup>3</sup>,α<sup>3</sup>-Tetrakis(trifluoromethyl)-1,3-benzenedimethanol;1,3-Bis(2-hydroxyhexafluoro-2-propyl)benzene;1,3-Bis(2-hydroxyhexafluoroisopropyl)benzene;1,3-Bis(hexafluoro-2-hydroxy-2-propyl)benzene;1,1,1,3,3,3-Hexafluoro-2-[3-(1,1,1,3,3,3-hexafluoro-2-hydroxypropan-2-yl)phenyl]propan-2-ol",
    "duplicated_cas_no": "",
    "SMILES": "C(C(F)(F)F)(C(F)(F)F)(O)C1=CC(C(C(F)(F)F)(C(F)(F)F)O)=CC=C1",
    "meta_data": {
        "InChI": "InChI=1S/C12H6F12O2/c13-9(14,15)7(25,10(16,17)18)5-2-1-3-6(4-5)8(26,11(19,20)21)12(22,23)24/h1-4,25-26H",
        "InChIKey": null,
        "Canonical SMILES": "FC(F)(F)C(O)(C1=CC=CC(=C1)C(O)(C(F)(F)F)C(F)(F)F)C(F)(F)F",
        "Molecular Formula": "C<sub>12</sub>H<sub>6</sub>F<sub>12</sub>O<sub>2</sub>",
        "Molecular Mass": "410.16",
        "Boiling Point": "77 °C @ Press: 4 Torr"
    }
}