{
    "cas_no": "6863-58-7",
    "key_name": "<em>sec</em>-Butyl ether",
    "cn_name": "仲丁基醚;",
    "alternate_name": "Butane, 2,2′-oxybis-;<em>sec</em>-Butyl ether;2,2′-Oxybis[butane];Di-<em>sec</em>-Butyl ether;Bis(2-butyl) ether;2-Butan-2-yloxybutane;2-(Butan-2-yloxy)butane",
    "duplicated_cas_no": "",
    "SMILES": "O(C(CC)C)C(CC)C",
    "meta_data": {
        "InChI": "InChI=1S/C8H18O/c1-5-7(3)9-8(4)6-2/h7-8H,5-6H2,1-4H3",
        "InChIKey": null,
        "Canonical SMILES": "O(C(C)CC)C(C)CC",
        "Molecular Formula": "C<sub>8</sub>H<sub>18</sub>O",
        "Molecular Mass": "130.23",
        "Boiling Point": "120-122 °C @ Press: 748 Torr",
        "Melting Point": "-100 °C",
        "Density": "0.761 g/cm³ @ Temp: 17 °C"
    }
}