{
    "cas_no": "620-14-4",
    "key_name": "1-Ethyl-3-methylbenzene",
    "cn_name": "间乙基甲苯;1-乙基-3-甲基苯;",
    "alternate_name": "Benzene, 1-ethyl-3-methyl-;Toluene, <em>m</em>-ethyl-;1-Ethyl-3-methylbenzene;3-Ethyltoluene;1-Methyl-3-ethylbenzene;<em>m</em>-Ethylmethylbenzene;3-Methylethylbenzene;<em>m</em>-Ethyltoluene;<em>m</em>-Methylethylbenzene;NSC 74176",
    "duplicated_cas_no": "",
    "SMILES": "C(C)C1=CC(C)=CC=C1",
    "meta_data": {
        "InChI": "InChI=1S/C9H12/c1-3-9-6-4-5-8(2)7-9/h4-7H,3H2,1-2H3",
        "InChIKey": null,
        "Canonical SMILES": "C=1C=C(C=C(C1)CC)C",
        "Molecular Formula": "C<sub>9</sub>H<sub>12</sub>",
        "Molecular Mass": "120.19",
        "Boiling Point": "161.3 °C",
        "Melting Point": "-95.5 °C",
        "Density": "0.867 g/cm³ @ Temp: 20 °C"
    }
}