{
    "cas_no": "3663-80-7",
    "key_name": "1,4-Benzodioxane-2-carboxylic acid",
    "cn_name": "1,4-苯并二噁烷-2-羧酸;",
    "alternate_name": "1,4-Benzodioxin-2-carboxylic acid, 2,3-dihydro-;1,4-Benzodioxan-2-carboxylic acid;2,3-Dihydro-1,4-benzodioxin-2-carboxylic acid;1,4-Benzodioxane-2-carboxylic acid;RX 811056;(±)-1,4-Benzodioxan-2-carboxylic acid;2,3-Dihydro-1,4-benzodioxine-2-carboxylic acid;2,3-Dihydrobenzo[<em>b</em>][1,4]dioxine-2-carboxylic acid;2,3-Dihydro-1,4-benzodioxine-3-carboxylic acid",
    "duplicated_cas_no": "34385-93-8",
    "SMILES": "C(O)(=O)C1OC=2C(OC1)=CC=CC2",
    "meta_data": {
        "InChI": "InChI=1S/C9H8O4/c10-9(11)8-5-12-6-3-1-2-4-7(6)13-8/h1-4,8H,5H2,(H,10,11)",
        "InChIKey": null,
        "Canonical SMILES": "O=C(O)C1OC=2C=CC=CC2OC1",
        "Molecular Formula": "C<sub>9</sub>H<sub>8</sub>O<sub>4</sub>",
        "Molecular Mass": "180.16",
        "Melting Point": "116-117 °C"
    }
}