{
    "cas_no": "7440-21-3",
    "key_name": "Silicon",
    "cn_name": "硅;工业硅;结晶硅;多晶硅;硅粉;金属硅;",
    "alternate_name": "Silicon;Silicon element;Sicomill Grade 2;KDB 20;Sicomill 4C-P;Silgrain Standard;SILSO;Polysilicon;HGH 600;Metasilicon 325A;Hexsil;CZ-N Polished wafer;SI 1059;GKO 3516A;KR 1;KDB 10;4FY;Silgrain HQ;Si(100) wafer;Biosilicon;Silgrain;Silicon 100;PHC 20;KDB 0.5;KDB 0.1;Aldrich 267414-25G;Sharp 80W;FEB 450D;JT 02;SIE 23PB;Sicomill E 4;PSi-C 2;ψ-C 2;SIE 20PB;KTC;KTC (element);Silicon 600;SI 500443;SI 500444;KEF 100;AgroSilicio;Sili-K;Si-S 10μm;6PW-A1;Silicon 200;SI 500452;a-Si 11;a-Si 12;a-Si 13;M-Si 600;Silgrain E-Si 400;T 2;T 2 (filler);SI 006031;WFP 6005;SAF 184;SI 100;KR-2;Wafer World 119;S 308;P 100;HY-G 10;PC 300 (element);PC 300;350WB;1HDX2;M-Si Fine WB;M-Si 350WB;V 8294;MeSH ID: D012825;Metco 4810;Si 01000;SB 0021",
    "duplicated_cas_no": "17375-03-0;71536-23-7;72516-01-9;72516-02-0;72516-03-1;90337-93-2;152284-21-4;157383-37-4;160371-18-6;1616351-53-1",
    "SMILES": "[Si]",
    "meta_data": {
        "InChI": "InChI=1S/Si",
        "InChIKey": null,
        "Canonical SMILES": "[Si]",
        "Molecular Formula": "Si",
        "Molecular Mass": "",
        "Boiling Point": "2355 °C",
        "Melting Point": "1410 °C",
        "Density": "2.33 g/cm³ @ Temp: 25 °C"
    }
}