{
    "cas_no": "71653-06-0",
    "key_name": "3-Hydroxyaspartic acid",
    "cn_name": "3-羟基天冬氨酸;",
    "alternate_name": "Aspartic acid, 3-hydroxy-;<span class=\"text-smallcaps\">DL</span>-Aspartic acid, 3-hydroxy-;3-Hydroxyaspartic acid;β-Hydroxyaspartic acid;3-Aminomalic acid;NSC 84663",
    "duplicated_cas_no": "1860-87-3",
    "SMILES": "C(C(C(O)=O)O)(C(O)=O)N",
    "meta_data": {
        "InChI": "InChI=1S/C4H7NO5/c5-1(3(7)8)2(6)4(9)10/h1-2,6H,5H2,(H,7,8)(H,9,10)",
        "InChIKey": null,
        "Canonical SMILES": "O=C(O)C(O)C(N)C(=O)O",
        "Molecular Formula": "C<sub>4</sub>H<sub>7</sub>NO<sub>5</sub>",
        "Molecular Mass": "149.10",
        "Melting Point": "287-288 °C (decomp)"
    }
}