{
    "cas_no": "306-92-3",
    "key_name": "Perfluoro(1-methyldecalin)",
    "cn_name": "十七氟十氢(三氟甲基)萘;全氟甲基十氢萘;全氟甲基萘烷;十七氟十氢(三氟甲基)萘;",
    "alternate_name": "Naphthalene, 1,1,2,2,3,3,4,4,4a,5,5,6,6,7,7,8,8a-heptadecafluorodecahydro-8-(trifluoromethyl)-;Naphthalene, heptadecafluorodecahydro-1-(trifluoromethyl)-;1,1,2,2,3,3,4,4,4a,5,5,6,6,7,7,8,8a-Heptadecafluorodecahydro-8-(trifluoromethyl)naphthalene;Perfluoro(1-methyldecalin);1-(Trifluoromethyl)perfluorodecalin;Perfluoro(decahydro-1-methylnaphthalene);Flutec PP 9;PP 9;Perfluoromethyldecalin;Perfluoromethyldecaline;1,1,2,2,3,3,4,4,4a,5,5,6,6,7,7,8,8a-Heptadecafluoro-8-(trifluoromethyl)naphthalene",
    "duplicated_cas_no": "89591-63-9",
    "SMILES": "FC12C(F)(C(F)(F)C(F)(F)C(F)(F)C1(C(F)(F)F)F)C(F)(F)C(F)(F)C(F)(F)C2(F)F",
    "meta_data": {
        "InChI": "InChI=1S/C11F20/c12-1-2(13,6(19,20)10(27,28)9(25,26)4(1,15)16)5(17,18)8(23,24)7(21,22)3(1,14)11(29,30)31",
        "InChIKey": null,
        "Canonical SMILES": "FC(F)(F)C1(F)C(F)(F)C(F)(F)C(F)(F)C2(F)C(F)(F)C(F)(F)C(F)(F)C(F)(F)C12F",
        "Molecular Formula": "C<sub>11</sub>F<sub>20</sub>",
        "Molecular Mass": "512.09",
        "Boiling Point": "161 °C",
        "Melting Point": "-70 °C",
        "Density": "1.9606 g/cm³ @ Temp: 20 °C"
    }
}