{
    "cas_no": "56-36-0",
    "key_name": "Tributyltin acetate",
    "cn_name": "三正丁基乙酸锡;",
    "alternate_name": "Acetic acid, tributylstannyl ester;Tributyltin acetate;Stannane, (acetyloxy)tributyl-;Stannane, acetoxytributyl-;Acetoxytributyltin;Tributylacetoxystannane;Acetoxytributylstannane;Tri-<em>n</em>-butyltin acetate;Tributylstannyl acetate;NSC 8989",
    "duplicated_cas_no": "72199-79-2",
    "SMILES": "[Sn](OC(C)=O)(CCCC)(CCCC)CCCC",
    "meta_data": {
        "InChI": "InChI=1S/3C4H9.C2H4O2.Sn/c3*1-3-4-2;1-2(3)4;/h3*1,3-4H2,2H3;1H3,(H,3,4);/q;;;;+1/p-1",
        "InChIKey": null,
        "Canonical SMILES": "O=C(O[Sn](CCCC)(CCCC)CCCC)C",
        "Molecular Formula": "C<sub>14</sub>H<sub>30</sub>O<sub>2</sub>Sn",
        "Molecular Mass": "349.10",
        "Melting Point": "84.7 °C"
    }
}