{
    "cas_no": "947-84-2",
    "key_name": "1-Biphenyl-2-carboxylic acid",
    "cn_name": "2-苯基苯甲酸;邻苯基苯甲酸;",
    "alternate_name": "[1,1′-Biphenyl]-2-carboxylic acid;2-Biphenylcarboxylic acid;2-Phenylbenzoic acid;<em>o</em>-Phenylbenzoic acid;Diphenyl-2-carboxylic acid;2-Carboxybiphenyl;NSC 76051;4′-Isopropylcarbonylbiphenyl-2-carboxylic acid;1-Biphenyl-2-carboxylic acid",
    "duplicated_cas_no": "182202-81-9",
    "SMILES": "C(O)(=O)C1=C(C=CC=C1)C2=CC=CC=C2",
    "meta_data": {
        "InChI": "InChI=1S/C13H10O2/c14-13(15)12-9-5-4-8-11(12)10-6-2-1-3-7-10/h1-9H,(H,14,15)",
        "InChIKey": null,
        "Canonical SMILES": "O=C(O)C=1C=CC=CC1C=2C=CC=CC2",
        "Molecular Formula": "C<sub>13</sub>H<sub>10</sub>O<sub>2</sub>",
        "Molecular Mass": "198.22",
        "Boiling Point": "343.5 °C",
        "Melting Point": "114.3 °C"
    }
}