{
    "cas_no": "185106-16-5",
    "key_name": "Acotiamide",
    "cn_name": null,
    "alternate_name": "4-Thiazolecarboxamide, <em>N</em>-[2-[bis(1-methylethyl)amino]ethyl]-2-[(2-hydroxy-4,5-dimethoxybenzoyl)amino]-;<em>N</em>-[2-[Bis(1-methylethyl)amino]ethyl]-2-[(2-hydroxy-4,5-dimethoxybenzoyl)amino]-4-thiazolecarboxamide;Acotiamide",
    "duplicated_cas_no": "",
    "SMILES": "C(NC1=NC(C(NCCN(C(C)C)C(C)C)=O)=CS1)(=O)C2=CC(OC)=C(OC)C=C2O",
    "meta_data": {
        "InChI": "InChI=1S/C21H30N4O5S/c1-12(2)25(13(3)4)8-7-22-20(28)15-11-31-21(23-15)24-19(27)14-9-17(29-5)18(30-6)10-16(14)26/h9-13,26H,7-8H2,1-6H3,(H,22,28)(H,23,24,27)",
        "InChIKey": null,
        "Canonical SMILES": "O=C(NCCN(C(C)C)C(C)C)C=1N=C(SC1)NC(=O)C=2C=C(OC)C(OC)=CC2O",
        "Molecular Formula": "C<sub>21</sub>H<sub>30</sub>N<sub>4</sub>O<sub>5</sub>S",
        "Molecular Mass": "450.55",
        "Melting Point": "128-130 °C"
    }
}