{
    "cas_no": "624-24-8",
    "key_name": "Methyl pentanoate",
    "cn_name": "戊酸甲酯;正戊酸甲酯;缬草酸甲酯;",
    "alternate_name": "Pentanoic acid, methyl ester;Valeric acid, methyl ester;Methyl valerate;Methyl <em>n</em>-valerate;Methyl valerianate;Methyl pentanoate;4-Methylbutanoic acid methyl ester",
    "duplicated_cas_no": "",
    "SMILES": "C(CCCC)(OC)=O",
    "meta_data": {
        "InChI": "InChI=1S/C6H12O2/c1-3-4-5-6(7)8-2/h3-5H2,1-2H3",
        "InChIKey": null,
        "Canonical SMILES": "O=C(OC)CCCC",
        "Molecular Formula": "C<sub>6</sub>H<sub>12</sub>O<sub>2</sub>",
        "Molecular Mass": "116.16",
        "Boiling Point": "127.4 °C",
        "Density": "0.8847999999999999 g/cm³ @ Temp: 25.00 °C"
    }
}