{
    "cas_no": "20977-05-3",
    "key_name": "Escin, monosodium salt",
    "cn_name": null,
    "alternate_name": "Escin, monosodium salt;Sodium escinate;Sodium escin;Escin sodium;Aescin sodium",
    "duplicated_cas_no": "11072-95-0;53028-06-1;55125-86-5",
    "SMILES": "",
    "meta_data": {
        "InChI": "",
        "InChIKey": null,
        "Canonical SMILES": "",
        "Molecular Formula": "Unspecified",
        "Molecular Mass": "",
        "Melting Point": "250-252 °C"
    }
}