{
    "uri": "substance/pt/20977053",
    "rn": "20977-05-3",
    "name": "Escin, monosodium salt",
    "images": [],
    "inchi": "",
    "inchiKey": "",
    "smile": "",
    "canonicalSmile": "",
    "molecularFormula": "Unspecified",
    "molecularMass": "",
    "experimentalProperties": [
        {
            "name": "Melting Point",
            "property": "250-252 °C",
            "sourceNumber": 1
        }
    ],
    "propertyCitations": [
        {
            "docUri": "document/pt/document/11897435",
            "sourceNumber": 1,
            "source": "Wagner, Josef; US3163636, 1964, CAplus"
        }
    ],
    "synonyms": [
        "Escin, monosodium salt",
        "Sodium escinate",
        "Sodium escin",
        "Escin sodium",
        "Aescin sodium"
    ],
    "replacedRns": [
        "11072-95-0",
        "53028-06-1",
        "55125-86-5"
    ],
    "hasMolfile": false,
    "source": "https://commonchemistry.cas.org/detail?cas_rn=20977-05-3"
}