{
    "cas_no": "61203-48-3",
    "key_name": "2-Iodo-4,5-dimethoxybenzoic acid",
    "cn_name": null,
    "alternate_name": "Benzoic acid, 2-iodo-4,5-dimethoxy-;Veratric acid, 6-iodo-;2-Iodo-4,5-dimethoxybenzoic acid;4,5-Dimethoxy-2-iodobenzoic acid",
    "duplicated_cas_no": "",
    "SMILES": "C(O)(=O)C1=C(I)C=C(OC)C(OC)=C1",
    "meta_data": {
        "InChI": "InChI=1S/C9H9IO4/c1-13-7-3-5(9(11)12)6(10)4-8(7)14-2/h3-4H,1-2H3,(H,11,12)",
        "InChIKey": null,
        "Canonical SMILES": "O=C(O)C=1C=C(OC)C(OC)=CC1I",
        "Molecular Formula": "C<sub>9</sub>H<sub>9</sub>IO<sub>4</sub>",
        "Molecular Mass": "308.07",
        "Melting Point": "310-314 °C"
    }
}