{
    "cas_no": "17852-52-7",
    "key_name": "4-Hydrazinylbenzenesulfonamide hydrochloride",
    "cn_name": "对肼基苯磺酰胺盐酸盐;对磺酰氨基苯肼盐酸盐;",
    "alternate_name": "Benzenesulfonamide, 4-hydrazinyl-, hydrochloride (1:1);Benzenesulfonamide, <em>p</em>-hydrazino-, monohydrochloride;Benzenesulfonamide, 4-hydrazino-, monohydrochloride;(<em>p</em>-Sulfamoylphenyl)hydrazine monohydrochloride;(4-Sulfamoylphenyl)hydrazine hydrochloride;4-Aminosulfonylphenylhydrazine monohydrochloride;[4-(Aminosulfonyl)phenyl]hydrazine hydrochloride;4-Hydrazinylbenzenesulfonamide hydrochloride;4-Hydrazinobenzene-1-sulfonamide hydrochloride;4-Hydrazinobenzenesulfonamide monohydrochloride;<em>p</em>-Hydrazinobenzensulfonamide hydrochloride;4-Hydrazinebenzenesulfonamide hydrochloride",
    "duplicated_cas_no": "1296820-66-0",
    "SMILES": "S(N)(=O)(=O)C1=CC=C(NN)C=C1.Cl",
    "meta_data": {
        "InChI": "InChI=1S/C6H9N3O2S.ClH/c7-9-5-1-3-6(4-2-5)12(8,10)11;/h1-4,9H,7H2,(H2,8,10,11);1H",
        "InChIKey": null,
        "Canonical SMILES": "Cl.O=S(=O)(N)C1=CC=C(C=C1)NN",
        "Molecular Formula": "C<sub>6</sub>H<sub>9</sub>N<sub>3</sub>O<sub>2</sub>S.ClH",
        "Molecular Mass": "",
        "Melting Point": "204 °C (decomp)"
    }
}