{
    "cas_no": "201004-46-8",
    "key_name": "<em>N</em><sup>2</sup>-[(9<em>H</em>-Fluoren-9-ylmethoxy)carbonyl]-<em>N</em><sup>6</sup>-(1-oxohexadecyl)-<span class=\"text-smallcaps\">L</span>-lysine",
    "cn_name": null,
    "alternate_name": "<span class=\"text-smallcaps\">L</span>-Lysine, <em>N</em><sup>2</sup>-[(9<em>H</em>-fluoren-9-ylmethoxy)carbonyl]-<em>N</em><sup>6</sup>-(1-oxohexadecyl)-;<em>N</em><sup>2</sup>-[(9<em>H</em>-Fluoren-9-ylmethoxy)carbonyl]-<em>N</em><sup>6</sup>-(1-oxohexadecyl)-<span class=\"text-smallcaps\">L</span>-lysine;(2S)-2-(9<em>H</em>-Fluoren-9-ylmethoxycarbonylamino)-6-(hexadecanoylamino)hexanoic acid",
    "duplicated_cas_no": "",
    "SMILES": "C(OC(N[C@@H](CCCCNC(CCCCCCCCCCCCCCC)=O)C(O)=O)=O)C1C=2C(C=3C1=CC=CC3)=CC=CC2",
    "meta_data": {
        "InChI": "InChI=1S/C37H54N2O5/c1-2-3-4-5-6-7-8-9-10-11-12-13-14-26-35(40)38-27-20-19-25-34(36(41)42)39-37(43)44-28-33-31-23-17-15-21-29(31)30-22-16-18-24-32(30)33/h15-18,21-24,33-34H,2-14,19-20,25-28H2,1H3,(H,38,40)(H,39,43)(H,41,42)/t34-/m0/s1",
        "InChIKey": null,
        "Canonical SMILES": "O=C(OCC1C=2C=CC=CC2C=3C=CC=CC31)NC(C(=O)O)CCCCNC(=O)CCCCCCCCCCCCCCC",
        "Molecular Formula": "C<sub>37</sub>H<sub>54</sub>N<sub>2</sub>O<sub>5</sub>",
        "Molecular Mass": "606.84",
        "Melting Point": "138-139 °C"
    }
}