{
    "cas_no": "58699-62-0",
    "key_name": "3′-Azido-3′-deoxyadenosine",
    "cn_name": null,
    "alternate_name": "Adenosine, 3′-azido-3′-deoxy-;3′-Azido-3′-deoxyadenosine",
    "duplicated_cas_no": "",
    "SMILES": "O[C@H]1[C@H](N2C=3C(N=C2)=C(N)N=CN3)O[C@H](CO)[C@H]1N=[N+]=[N-]",
    "meta_data": {
        "InChI": "InChI=1S/C10H12N8O3/c11-8-6-9(14-2-13-8)18(3-15-6)10-7(20)5(16-17-12)4(1-19)21-10/h2-5,7,10,19-20H,1H2,(H2,11,13,14)/t4-,5-,7-,10-/m1/s1",
        "InChIKey": null,
        "Canonical SMILES": "[N-]=[N+]=NC1C(O)C(OC1CO)N2C=NC=3C(=NC=NC32)N",
        "Molecular Formula": "C<sub>10</sub>H<sub>12</sub>N<sub>8</sub>O<sub>3</sub>",
        "Molecular Mass": "",
        "Melting Point": "212-214 °C"
    }
}