{
    "cas_no": "2971-90-6",
    "key_name": "Clopidol",
    "cn_name": "氯吡多;氯羟吡啶;二氯二甲吡啶酚;3,5-二氯-2,6-二甲基-4-羟基吡啶;",
    "alternate_name": "4-Pyridinol, 3,5-dichloro-2,6-dimethyl-;3,5-Dichloro-2,6-dimethyl-4-pyridinol;Coyden;Meticlorpindol;Clopidol;Coyden 25;Coccidiostat C;2,6-Dimethyl-3,5-dichloro-4-pyridinol;Methylchlorpindol;3,5-Dichloro-4-hydroxy-2,6-dimethylpyridine;3,5-Dichloro-2,6-dimethylpyridinol;Methylchloropindol;Lerbek;3,5-Dichloro-2,6-dimethyl-4-hydroxypyridine;Pharmcoccid;Farmcoccid;WR 61112;NSC 253479;2,6-Dimethyl-3,5-dichloro-4-hydroxypyridine;Pharmcoccid 10",
    "duplicated_cas_no": "11116-46-4;68821-99-8",
    "SMILES": "ClC=1C(O)=C(Cl)C(C)=NC1C",
    "meta_data": {
        "InChI": "InChI=1S/C7H7Cl2NO/c1-3-5(8)7(11)6(9)4(2)10-3/h1-2H3,(H,10,11)",
        "InChIKey": null,
        "Canonical SMILES": "ClC=1C(O)=C(Cl)C(=NC1C)C",
        "Molecular Formula": "C<sub>7</sub>H<sub>7</sub>Cl<sub>2</sub>NO",
        "Molecular Mass": "192.04",
        "Melting Point": "320 °C"
    }
}