{
    "cas_no": "5683-44-3",
    "key_name": "3-Methyl-2,4-pentanediol",
    "cn_name": null,
    "alternate_name": "2,4-Pentanediol, 3-methyl-;3-Methyl-2,4-pentanediol;3-Methylpentanediol-2,4;NSC 66498",
    "duplicated_cas_no": "",
    "SMILES": "C(C(C)O)(C(C)O)C",
    "meta_data": {
        "InChI": "InChI=1S/C6H14O2/c1-4(5(2)7)6(3)8/h4-8H,1-3H3",
        "InChIKey": null,
        "Canonical SMILES": "OC(C)C(C)C(O)C",
        "Molecular Formula": "C<sub>6</sub>H<sub>14</sub>O<sub>2</sub>",
        "Molecular Mass": "118.17",
        "Boiling Point": "211.5 °C",
        "Density": "0.9325 g/cm³ @ Temp: 20 °C"
    }
}