{
    "cas_no": "4815-34-3",
    "key_name": "Ethyl 2-amino-5-phenylthiophene-3-carboxylate",
    "cn_name": null,
    "alternate_name": "3-Thiophenecarboxylic acid, 2-amino-5-phenyl-, ethyl ester;Ethyl 2-amino-5-phenylthiophene-3-carboxylate;2-Amino-5-phenyl-3-thiophenecarboxylic acid ethyl ester",
    "duplicated_cas_no": "",
    "SMILES": "C(OCC)(=O)C=1C=C(SC1N)C2=CC=CC=C2",
    "meta_data": {
        "InChI": "InChI=1S/C13H13NO2S/c1-2-16-13(15)10-8-11(17-12(10)14)9-6-4-3-5-7-9/h3-8H,2,14H2,1H3",
        "InChIKey": null,
        "Canonical SMILES": "O=C(OCC)C=1C=C(SC1N)C=2C=CC=CC2",
        "Molecular Formula": "C<sub>13</sub>H<sub>13</sub>NO<sub>2</sub>S",
        "Molecular Mass": "247.31",
        "Melting Point": "123-124 °C"
    }
}