{
    "cas_no": "7765-11-9",
    "key_name": "<em>N</em>-(2-Chloroacetyl)phenylalanine",
    "cn_name": "氯乙酰基-DL-苯丙氨酸;氯乙酰基-DL-苯丙氨酸;",
    "alternate_name": "Phenylalanine, <em>N</em>-(2-chloroacetyl)-;Alanine, <em>N</em>-(chloroacetyl)-3-phenyl-, <span class=\"text-smallcaps\">DL</span>-;<span class=\"text-smallcaps\">DL</span>-Phenylalanine, <em>N</em>-(chloroacetyl)-;Phenylalanine, <em>N</em>-(chloroacetyl)-;<em>N</em>-(2-Chloroacetyl)phenylalanine;<em>N</em>-Chloroacetyl-<span class=\"text-smallcaps\">DL</span>-phenylalanine;NSC 77369;2-[(2-Chloroacetyl)amino]-3-phenylpropanoic acid;2-(2-Chloroacetamido)-3-phenylpropanoic acid;2-(2-Chloro-acetylamino)-3-phenyl-propionic acid",
    "duplicated_cas_no": "",
    "SMILES": "C(CC1=CC=CC=C1)(NC(CCl)=O)C(O)=O",
    "meta_data": {
        "InChI": "InChI=1S/C11H12ClNO3/c12-7-10(14)13-9(11(15)16)6-8-4-2-1-3-5-8/h1-5,9H,6-7H2,(H,13,14)(H,15,16)",
        "InChIKey": null,
        "Canonical SMILES": "O=C(O)C(NC(=O)CCl)CC=1C=CC=CC1",
        "Molecular Formula": "C<sub>11</sub>H<sub>12</sub>ClNO<sub>3</sub>",
        "Molecular Mass": "241.67",
        "Melting Point": "128-129 °C"
    }
}