{
    "cas_no": "76420-72-9",
    "key_name": "Enalaprilat",
    "cn_name": "依那普利拉;N-[(S)-1-羧基-3-苯丙基]-L-丙氨酰-L-脯氨酸;",
    "alternate_name": "<span class=\"text-smallcaps\">L</smallcap>-Proline, <em>N</em>-[(1<em>S</em>)-1-carboxy-3-phenylpropyl]-<smallcap>L</span>-alanyl-;<span class=\"text-smallcaps\">L</smallcap>-Proline, 1-[<em>N</em>-(1-carboxy-3-phenylpropyl)-<smallcap>L</span>-alanyl]-, (<em>S</em>)-;<em>N</em>-[(1<em>S</em>)-1-Carboxy-3-phenylpropyl]-<span class=\"text-smallcaps\">L</smallcap>-alanyl-<smallcap>L</span>-proline;MK 422;MK 421 diacid;<em>N</em>-[1(<em>S</em>)-Carboxy-3-phenylpropyl]-<span class=\"text-smallcaps\">L</smallcap>-alanyl-<smallcap>L</span>-proline;Enalaprilic acid;Enalaprilat;Enalapril acid;Enalapril diacid;Enalaprilate;MeSH ID: D015773",
    "duplicated_cas_no": "",
    "SMILES": "C([C@@H](N[C@@H](CCC1=CC=CC=C1)C(O)=O)C)(=O)N2[C@H](C(O)=O)CCC2",
    "meta_data": {
        "InChI": "InChI=1S/C18H24N2O5/c1-12(16(21)20-11-5-8-15(20)18(24)25)19-14(17(22)23)10-9-13-6-3-2-4-7-13/h2-4,6-7,12,14-15,19H,5,8-11H2,1H3,(H,22,23)(H,24,25)/t12-,14-,15-/m0/s1",
        "InChIKey": null,
        "Canonical SMILES": "O=C(O)C(NC(C(=O)N1CCCC1C(=O)O)C)CCC=2C=CC=CC2",
        "Molecular Formula": "C<sub>18</sub>H<sub>24</sub>N<sub>2</sub>O<sub>5</sub>",
        "Molecular Mass": "348.39",
        "Melting Point": "148-151 °C"
    }
}