{
    "cas_no": "27387-31-1",
    "key_name": "1,2,3,9-Tetrahydro-9-methyl-4<em>H</em>-carbazol-4-one",
    "cn_name": "1,2,3,4-四氢-9-甲基-4H-咔唑酮;9-甲基-1,2,3,4-四氢咔唑酮;",
    "alternate_name": "4<em>H</em>-Carbazol-4-one, 1,2,3,9-tetrahydro-9-methyl-;Carbazol-4(1<em>H</em>)-one, 2,3-dihydro-9-methyl-;1,2,3,9-Tetrahydro-9-methyl-4<em>H</em>-carbazol-4-one;1,2,3,9-Tetrahydro-9-methyl-4<em>H</em>-carbazole-4-one",
    "duplicated_cas_no": "808754-65-6",
    "SMILES": "O=C1C=2C=3C(N(C)C2CCC1)=CC=CC3",
    "meta_data": {
        "InChI": "InChI=1S/C13H13NO/c1-14-10-6-3-2-5-9(10)13-11(14)7-4-8-12(13)15/h2-3,5-6H,4,7-8H2,1H3",
        "InChIKey": null,
        "Canonical SMILES": "O=C1C=2C=3C=CC=CC3N(C2CCC1)C",
        "Molecular Formula": "C<sub>13</sub>H<sub>13</sub>NO",
        "Molecular Mass": "199.25",
        "Melting Point": "195 °C"
    }
}