{
    "cas_no": "100-16-3",
    "key_name": "(4-Nitrophenyl)hydrazine",
    "cn_name": "4-硝基苯肼;对硝基苯肼;",
    "alternate_name": "Hydrazine, (4-nitrophenyl)-;Hydrazine, (<em>p</em>-nitrophenyl)-;(4-Nitrophenyl)hydrazine;(<em>p</em>-Nitrophenyl)hydrazine;<em>p</em>-Hydrazinonitrobenzene;NSC 4079;1-(4-Nitrophenyl)hydrazine",
    "duplicated_cas_no": "491846-65-2;491846-74-3",
    "SMILES": "N(=O)(=O)C1=CC=C(NN)C=C1",
    "meta_data": {
        "InChI": "InChI=1S/C6H7N3O2/c7-8-5-1-3-6(4-2-5)9(10)11/h1-4,8H,7H2",
        "InChIKey": null,
        "Canonical SMILES": "O=N(=O)C1=CC=C(C=C1)NN",
        "Molecular Formula": "C<sub>6</sub>H<sub>7</sub>N<sub>3</sub>O<sub>2</sub>",
        "Molecular Mass": "153.14",
        "Melting Point": "158 °C (decomp)"
    }
}