{
    "cas_no": "37593-05-8",
    "key_name": "1-(4-Nonylphenyl)ethanone",
    "cn_name": "4-正壬基苯乙酮;4\"-正壬基乙酰苯酮;",
    "alternate_name": "Ethanone, 1-(4-nonylphenyl)-;1-(4-Nonylphenyl)ethanone;4′-Nonylacetophenone;<em>p</em>-Nonylacetophenone;1-(4-Nonylphenyl)ethan-1-one",
    "duplicated_cas_no": "",
    "SMILES": "C(CCCCCCCC)C1=CC=C(C(C)=O)C=C1",
    "meta_data": {
        "InChI": "InChI=1S/C17H26O/c1-3-4-5-6-7-8-9-10-16-11-13-17(14-12-16)15(2)18/h11-14H,3-10H2,1-2H3",
        "InChIKey": null,
        "Canonical SMILES": "O=C(C1=CC=C(C=C1)CCCCCCCCC)C",
        "Molecular Formula": "C<sub>17</sub>H<sub>26</sub>O",
        "Molecular Mass": "246.39",
        "Boiling Point": "165 °C @ Press: 3 Torr"
    }
}