{
    "cas_no": "1708-41-4",
    "key_name": "2-Furyl-1,3-dioxolane",
    "cn_name": null,
    "alternate_name": "1,3-Dioxolane, 2-(2-furanyl)-;1,3-Dioxolane, 2-(2-furyl)-;2-(2-Furanyl)-1,3-dioxolane;2-Furaldehyde cyclic ethylene acetal;Furfural ethylene acetal;2-(α-Furyl)-1,3-dioxolane;2-Furyl-1,3-dioxolane;2-(2-Furyl)-1,3-dioxolane;Furolan;NSC 97506;2-(1,3-Dioxolan-2-yl)furan;Furalane;Rarechem AL BP 0007",
    "duplicated_cas_no": "",
    "SMILES": "C1(=CC=CO1)C2OCCO2",
    "meta_data": {
        "InChI": "InChI=1S/C7H8O3/c1-2-6(8-3-1)7-9-4-5-10-7/h1-3,7H,4-5H2",
        "InChIKey": null,
        "Canonical SMILES": "O1C=CC=C1C2OCCO2",
        "Molecular Formula": "C<sub>7</sub>H<sub>8</sub>O<sub>3</sub>",
        "Molecular Mass": "140.14",
        "Boiling Point": "92-105 °C",
        "Melting Point": "-41 °C",
        "Density": "1.1677 g/cm³ @ Temp: 20 °C"
    }
}