{
    "cas_no": "5205-39-0",
    "key_name": "Pentanoic acid, 5-chloro-5-oxo-, ethyl ester",
    "cn_name": null,
    "alternate_name": "Pentanoic acid, 5-chloro-5-oxo-, ethyl ester;Butyric acid, 4-(chloroformyl)-, ethyl ester;γ-Carbethoxybutyryl chloride;Ethyl 4-(chloroformyl)butyrate;Ethyl 4-(chloroformyl)butanoate;Glutaric acid ethyl ester chloride;Ethyl glutaroyl chloride;Ethyl glutaric acid chloride;NSC 249814;Ethyl 5-chloro-5-oxopentanoate;Ethyl glutaryl chloride;5-Chloro-5-oxopentanoic acid ethyl ester;4-Chlorocarbonylbutyric acid ethyl ester",
    "duplicated_cas_no": "",
    "SMILES": "C(CCCC(Cl)=O)(OCC)=O",
    "meta_data": {
        "InChI": "InChI=1S/C7H11ClO3/c1-2-11-7(10)5-3-4-6(8)9/h2-5H2,1H3",
        "InChIKey": null,
        "Canonical SMILES": "O=C(Cl)CCCC(=O)OCC",
        "Molecular Formula": "C<sub>7</sub>H<sub>11</sub>ClO<sub>3</sub>",
        "Molecular Mass": "178.61",
        "Boiling Point": "110 °C @ Press: 20 Torr"
    }
}