{
    "cas_no": "173334-58-2",
    "key_name": "Aliskiren hemifumarate",
    "cn_name": null,
    "alternate_name": "Benzeneoctanamide, δ-amino-<em>N</em>-(3-amino-2,2-dimethyl-3-oxopropyl)-γ-hydroxy-4-methoxy-3-(3-methoxypropoxy)-α,ζ-bis(1-methylethyl)-, (α<em>S</em>,γ<em>S</em>,δ<em>S</em>,ζ<em>S</em>)-, (2<em>E</em>)-2-butenedioate (2:1);Benzeneoctanamide, δ-amino-<em>N</em>-(3-amino-2,2-dimethyl-3-oxopropyl)-γ-hydroxy-4-methoxy-3-(3-methoxypropoxy)-α,ζ-bis(1-methylethyl)-, [α<em>S</em>-(α<em>R</em>*,γ<em>R</em>*,δ<em>R</em>*,ζ<em>R</em>*)]-, (<em>E</em>)-2-butenedioate (2:1) (salt);Benzeneoctanamide, δ-amino-<em>N</em>-(3-amino-2,2-dimethyl-3-oxopropyl)-γ-hydroxy-4-methoxy-3-(3-methoxypropoxy)-α,ζ-bis(1-methylethyl)-, (α<em>S</em>,γ<em>S</em>,δ<em>S</em>,ζ<em>S</em>)-, (2<em>E</em>)-2-butenedioate (2:1) (salt);Aliskiren hemifumarate;Aliskiren fumarate",
    "duplicated_cas_no": "",
    "SMILES": "O(CCCOC)C1=C(OC)C=CC(C[C@@H](C[C@@H]([C@H](C[C@H](C(NCC(C(N)=O)(C)C)=O)C(C)C)O)N)C(C)C)=C1.C(=C/C(O)=O)\\C(O)=O",
    "meta_data": {
        "InChI": "",
        "InChIKey": null,
        "Canonical SMILES": "O=C(O)C=CC(=O)O.O=C(N)C(C)(C)CNC(=O)C(CC(O)C(N)CC(CC1=CC=C(OC)C(OCCCOC)=C1)C(C)C)C(C)C",
        "Molecular Formula": "C<sub>30</sub>H<sub>53</sub>N<sub>3</sub>O<sub>6</sub>.<sup>1</sup>/<sub>2</sub>C<sub>4</sub>H<sub>4</sub>O<sub>4</sub>",
        "Molecular Mass": "",
        "Melting Point": "108-115 °C"
    }
}