{
    "cas_no": "1524-88-5",
    "key_name": "Flurandrenolide",
    "cn_name": "氟氢缩松;",
    "alternate_name": "Pregn-4-ene-3,20-dione, 6-fluoro-11,21-dihydroxy-16,17-[(1-methylethylidene)bis(oxy)]-, (6α,11β,16α)-;Pregn-4-ene-3,20-dione, 6α-fluoro-11β,16α,17,21-tetrahydroxy-, cyclic 16,17-acetal with acetone;2<em>H</em>-Naphth[2′,1′:4,5]indeno[1,2-<em>d</em>][1,3]dioxole, pregn-4-ene-3,20-dione deriv.;(6α,11β,16α)-6-Fluoro-11,21-dihydroxy-16,17-[(1-methylethylidene)bis(oxy)]pregn-4-ene-3,20-dione;33379;Cordran;Drenison;6α-Fluoro-16α-hydroxyhydrocortisone 16,17-acetonide;Flurandrenolone;Flurandrenolone acetonide;Fludroxycortide;Flurandrenolide;Fluorandrenolone;Fluoroandrenolone acetonide;Fluorandrenolone acetonide;Haelan;6α-Fluoro-11β,21-dihydroxy-16α,17α-(isopropylidenedioxy)pregn-4-ene-3,20-dione;Alondra F;Drocort;Haldrone F;L 33379;Sermaka;Fluadrenolone;Fludroxicortide;Fluandrenolone",
    "duplicated_cas_no": "15793-33-6;744198-79-6",
    "SMILES": "C(CO)(=O)[C@]12[C@]3(C)[C@@](C[C@]1(OC(C)(C)O2)[H])([C@]4([C@]([C@@H](O)C3)([C@]5(C)C([C@@H](F)C4)=CC(=O)CC5)[H])[H])[H]",
    "meta_data": {
        "InChI": "InChI=1S/C24H33FO6/c1-21(2)30-19-9-14-13-8-16(25)15-7-12(27)5-6-22(15,3)20(13)17(28)10-23(14,4)24(19,31-21)18(29)11-26/h7,13-14,16-17,19-20,26,28H,5-6,8-11H2,1-4H3/t13-,14-,16-,17-,19+,20+,22-,23-,24+/m0/s1",
        "InChIKey": null,
        "Canonical SMILES": "O=C1C=C2C(F)CC3C4CC5OC(OC5(C(=O)CO)C4(C)CC(O)C3C2(C)CC1)(C)C",
        "Molecular Formula": "C<sub>24</sub>H<sub>33</sub>FO<sub>6</sub>",
        "Molecular Mass": "436.51",
        "Melting Point": "247-255 °C"
    }
}