{
    "cas_no": "57966-95-7",
    "key_name": "Cymoxanil",
    "cn_name": "霜脲氰;1-(2-氰基-2-甲氧基亚氨基乙酰基)-3-乙基脲;",
    "alternate_name": "Acetamide, 2-cyano-<em>N</em>-[(ethylamino)carbonyl]-2-(methoxyimino)-;2-Cyano-<em>N</em>-[(ethylamino)carbonyl]-2-(methoxyimino)acetamide;2-Cyano-<em>N</em>-ethylcarbamoyl-2-methoxyiminoacetamide;DPX 3217;Curzate;DPX 3217M;Cymoxanil;Tosca MZ;Casparytin",
    "duplicated_cas_no": "93195-85-8;1135443-55-8",
    "SMILES": "C(C(NC(NCC)=O)=O)(=NOC)C#N",
    "meta_data": {
        "InChI": "InChI=1S/C7H10N4O3/c1-3-9-7(13)10-6(12)5(4-8)11-14-2/h3H2,1-2H3,(H2,9,10,12,13)",
        "InChIKey": null,
        "Canonical SMILES": "N#CC(=NOC)C(=O)NC(=O)NCC",
        "Molecular Formula": "C<sub>7</sub>H<sub>10</sub>N<sub>4</sub>O<sub>3</sub>",
        "Molecular Mass": "198.18",
        "Melting Point": "160-161 °C",
        "Density": "1.31 g/cm³ @ Temp: 25 °C"
    }
}