{
    "cas_no": "153813-70-8",
    "key_name": "3-Nitro-4-pyridinecarboxaldehyde",
    "cn_name": null,
    "alternate_name": "4-Pyridinecarboxaldehyde, 3-nitro-;3-Nitro-4-pyridinecarboxaldehyde;3-Nitroisonicotinaldehyde;3-Nitropyridine-4-carbaldehyde",
    "duplicated_cas_no": "",
    "SMILES": "C(=O)C=1C(N(=O)=O)=CN=CC1",
    "meta_data": {
        "InChI": "InChI=1S/C6H4N2O3/c9-4-5-1-2-7-3-6(5)8(10)11/h1-4H",
        "InChIKey": null,
        "Canonical SMILES": "O=CC=1C=CN=CC1N(=O)=O",
        "Molecular Formula": "C<sub>6</sub>H<sub>4</sub>N<sub>2</sub>O<sub>3</sub>",
        "Molecular Mass": "152.11",
        "Melting Point": "53-54 °C"
    }
}