{
    "cas_no": "1065010-88-9",
    "key_name": "Borate(1-), cyclobutyltrifluoro-, potassium (1:1), (<em>T</em>-4)-",
    "cn_name": null,
    "alternate_name": "Borate(1-), cyclobutyltrifluoro-, potassium (1:1), (<em>T</em>-4)-;Potassium cyclobutyltrifluoroborate",
    "duplicated_cas_no": "",
    "SMILES": "[B+3]([F-])([F-])([F-])[CH-]1CCC1.[K+]",
    "meta_data": {
        "InChI": "InChI=1S/C4H7BF3.K/c6-5(7,8)4-2-1-3-4;/h4H,1-3H2;/q-1;+1",
        "InChIKey": null,
        "Canonical SMILES": "[K+].[F-][B+3]([F-])([F-])[CH-]1CCC1",
        "Molecular Formula": "C<sub>4</sub>H<sub>7</sub>BF<sub>3</sub>.K",
        "Molecular Mass": "",
        "Melting Point": "200 °C (decomp)"
    }
}