{
    "cas_no": "500791-70-8",
    "key_name": "Methanone, (5-amino-2-butyl-3-benzofuranyl)[4-[3-(dibutylamino)propoxy]phenyl]-, ethanedioate (1:2)",
    "cn_name": null,
    "alternate_name": "Methanone, (5-amino-2-butyl-3-benzofuranyl)[4-[3-(dibutylamino)propoxy]phenyl]-, ethanedioate (1:2)",
    "duplicated_cas_no": "",
    "SMILES": "C(=O)(C=1C=2C(OC1CCCC)=CC=C(N)C2)C3=CC=C(OCCCN(CCCC)CCCC)C=C3.C(C(O)=O)(O)=O",
    "meta_data": {
        "InChI": "InChI=1S/C30H42N2O3.C2H2O4/c1-4-7-11-28-29(26-22-24(31)14-17-27(26)35-28)30(33)23-12-15-25(16-13-23)34-21-10-20-32(18-8-5-2)19-9-6-3;3-1(4)2(5)6/h12-17,22H,4-11,18-21,31H2,1-3H3;(H,3,4)(H,5,6)",
        "InChIKey": null,
        "Canonical SMILES": "O=C(O)C(=O)O.O=C(C1=CC=C(OCCCN(CCCC)CCCC)C=C1)C=2C=3C=C(N)C=CC3OC2CCCC",
        "Molecular Formula": "C<sub>30</sub>H<sub>42</sub>N<sub>2</sub>O<sub>3</sub>.2C<sub>2</sub>H<sub>2</sub>O<sub>4</sub>",
        "Molecular Mass": "",
        "Melting Point": "170 °C"
    }
}