{
    "cas_no": "17609-47-1",
    "key_name": "<span class=\"text-smallcaps\">L</span>-Valine, ethyl ester, hydrochloride",
    "cn_name": null,
    "alternate_name": "<span class=\"text-smallcaps\">L</span>-Valine, ethyl ester, hydrochloride (1:1);Valine, ethyl ester, hydrochloride, <span class=\"text-smallcaps\">L</span>-;<span class=\"text-smallcaps\">L</span>-Valine, ethyl ester, hydrochloride;(<em>S</em>)-Valine ethyl ester hydrochloride;Valine ethyl ester hydrochloride;Ethyl <span class=\"text-smallcaps\">L</span>-valinate hydrochloride",
    "duplicated_cas_no": "",
    "SMILES": "[C@@H](C(OCC)=O)(C(C)C)N.Cl",
    "meta_data": {
        "InChI": "InChI=1S/C7H15NO2.ClH/c1-4-10-7(9)6(8)5(2)3;/h5-6H,4,8H2,1-3H3;1H/t6-;/m0./s1",
        "InChIKey": null,
        "Canonical SMILES": "Cl.O=C(OCC)C(N)C(C)C",
        "Molecular Formula": "C<sub>7</sub>H<sub>15</sub>NO<sub>2</sub>.ClH",
        "Molecular Mass": "",
        "Melting Point": "102-104 °C"
    }
}