{
    "cas_no": "1730-48-9",
    "key_name": "6-Methoxy-1,2,3,4-tetrahydronaphthalene",
    "cn_name": "6-甲氧基-1,2,3,4-四氢萘;四氢萘甲醚;",
    "alternate_name": "Naphthalene, 1,2,3,4-tetrahydro-6-methoxy-;1,2,3,4-Tetrahydro-6-methoxynaphthalene;6-Methoxytetralin;6-Methoxy-1,2,3,4-tetrahydronaphthalene;2-Methoxy-5,6,7,8-tetrahydronaphthalene;7-Methoxy-1,2,3,4-tetrahydronaphthalene;NSC 28470;3-Methoxy-5,6,7,8-tetrahydronaphthalene;7-Methoxy-3,4-dihydro-1<em>H</em>-naphthalene",
    "duplicated_cas_no": "",
    "SMILES": "O(C)C=1C=C2C(=CC1)CCCC2",
    "meta_data": {
        "InChI": "InChI=1S/C11H14O/c1-12-11-7-6-9-4-2-3-5-10(9)8-11/h6-8H,2-5H2,1H3",
        "InChIKey": null,
        "Canonical SMILES": "O(C1=CC=C2C(=C1)CCCC2)C",
        "Molecular Formula": "C<sub>11</sub>H<sub>14</sub>O",
        "Molecular Mass": "162.23",
        "Boiling Point": "103-105 °C @ Press: 5.5 Torr",
        "Melting Point": "134-137 °C"
    }
}