{
    "cas_no": "1210-83-9",
    "key_name": "<em>N</em>-Acetylserotonin",
    "cn_name": "N-乙酰基-5-羟色胺;",
    "alternate_name": "Acetamide, <em>N</em>-[2-(5-hydroxy-1<em>H</em>-indol-3-yl)ethyl]-;Acetamide, <em>N</em>-[2-(5-hydroxyindol-3-yl)ethyl]-;<em>N</em>-[2-(5-Hydroxy-1<em>H</em>-indol-3-yl)ethyl]acetamide;<em>N</em>-Acetylserotonin;<em>N</em>-Acetyl-5-hydroxytryptamine;Serotonin, <em>N</em>-acetyl-;5-Hydroxy-<em>N</em>-acetyltryptamine;5-Hydroxymelatonin;<em>N</em>-Acetyl-2-(5-hydroxyindol-3-yl)ethylamine;Normelatonin;<em>O</em>-Demethylmelatonin",
    "duplicated_cas_no": "",
    "SMILES": "C(CNC(C)=O)C=1C=2C(NC1)=CC=C(O)C2",
    "meta_data": {
        "InChI": "InChI=1S/C12H14N2O2/c1-8(15)13-5-4-9-7-14-12-3-2-10(16)6-11(9)12/h2-3,6-7,14,16H,4-5H2,1H3,(H,13,15)",
        "InChIKey": null,
        "Canonical SMILES": "O=C(NCCC1=CNC=2C=CC(O)=CC21)C",
        "Molecular Formula": "C<sub>12</sub>H<sub>14</sub>N<sub>2</sub>O<sub>2</sub>",
        "Molecular Mass": "218.25",
        "Melting Point": "93-94 °C"
    }
}