{
    "cas_no": "56621-93-3",
    "key_name": "5-Amino-2-pyrimidinecarbonitrile",
    "cn_name": null,
    "alternate_name": "2-Pyrimidinecarbonitrile, 5-amino-;5-Amino-2-pyrimidinecarbonitrile;2-Cyano-5-pyrimidinamine;2-Cyano-5-aminopyrimidine;5-Amino-2-cyanopyrimidine",
    "duplicated_cas_no": "",
    "SMILES": "C(#N)C=1N=CC(N)=CN1",
    "meta_data": {
        "InChI": "InChI=1S/C5H4N4/c6-1-5-8-2-4(7)3-9-5/h2-3H,7H2",
        "InChIKey": null,
        "Canonical SMILES": "N#CC1=NC=C(N)C=N1",
        "Molecular Formula": "C<sub>5</sub>H<sub>4</sub>N<sub>4</sub>",
        "Molecular Mass": "120.11",
        "Melting Point": "230-231 °C"
    }
}