{
    "cas_no": "40298-71-3",
    "key_name": "<em>O</em>-[(2,6-Dichlorophenyl)methyl]-<em>N</em>-[(1,1-dimethylethoxy)carbonyl]-<span class=\"text-smallcaps\">L</span>-tyrosine",
    "cn_name": "NA-T-BOC-O-2,6-二氯苄基-L-酪氨酸;",
    "alternate_name": "<span class=\"text-smallcaps\">L</span>-Tyrosine, <em>O</em>-[(2,6-dichlorophenyl)methyl]-<em>N</em>-[(1,1-dimethylethoxy)carbonyl]-;<em>O</em>-[(2,6-Dichlorophenyl)methyl]-<em>N</em>-[(1,1-dimethylethoxy)carbonyl]-<span class=\"text-smallcaps\">L</span>-tyrosine;<em>N</em>-(<em>tert</em>-Butoxycarbonyl)-<em>O</em>-(2,6-dichlorobenzyl)-<span class=\"text-smallcaps\">L</span>-tyrosine;NSC 334369;<em>N</em>-[(<em>tert</em>-Butoxy)carbonyl]-O-[(2,6-dichlorophenyl)methyl]-<span class=\"text-smallcaps\">L</span>-tyrosine;(2S)-3-[4-[(2,6-Dichlorophenyl)methoxy]phenyl]-2-[(2-methylpropan-2-yl)oxycarbonylamino]propanoic acid",
    "duplicated_cas_no": "71603-44-6;155453-26-2",
    "SMILES": "C(OC1=CC=C(C[C@H](NC(OC(C)(C)C)=O)C(O)=O)C=C1)C2=C(Cl)C=CC=C2Cl",
    "meta_data": {
        "InChI": "InChI=1S/C21H23Cl2NO5/c1-21(2,3)29-20(27)24-18(19(25)26)11-13-7-9-14(10-8-13)28-12-15-16(22)5-4-6-17(15)23/h4-10,18H,11-12H2,1-3H3,(H,24,27)(H,25,26)/t18-/m0/s1",
        "InChIKey": null,
        "Canonical SMILES": "O=C(OC(C)(C)C)NC(C(=O)O)CC1=CC=C(OCC=2C(Cl)=CC=CC2Cl)C=C1",
        "Molecular Formula": "C<sub>21</sub>H<sub>23</sub>Cl<sub>2</sub>NO<sub>5</sub>",
        "Molecular Mass": "440.32",
        "Melting Point": "103-104 °C"
    }
}