{
    "cas_no": "5962-42-5",
    "key_name": "3-Phosphonopropionic acid",
    "cn_name": "3-磷酰基丙酸;",
    "alternate_name": "Propanoic acid, 3-phosphono-;Propionic acid, 3-phosphono-;3-Phosphonopropanoic acid;Phosphonic acid, (2-carboxyethyl)-;β-Phosphonopropionic acid;2-Carboxyethane-1-phosphonic acid;2-Carboxyethanephosphonic acid;Carboxyethylphosphonic acid;3-Phosphonopropionic acid;1-Carboxyethane-2-phosphonic acid;2-Carboxyethylphosphonic acid;2-CEPA;Rhodafac ASI-HW",
    "duplicated_cas_no": "",
    "SMILES": "C(P(=O)(O)O)CC(O)=O",
    "meta_data": {
        "InChI": "InChI=1S/C3H7O5P/c4-3(5)1-2-9(6,7)8/h1-2H2,(H,4,5)(H2,6,7,8)",
        "InChIKey": null,
        "Canonical SMILES": "O=C(O)CCP(=O)(O)O",
        "Molecular Formula": "C<sub>3</sub>H<sub>7</sub>O<sub>5</sub>P",
        "Molecular Mass": "154.06",
        "Melting Point": "178-180 °C"
    }
}