{
    "cas_no": "6647-93-4",
    "key_name": "4-Iodo-1<em>H</em>-pyrazole-3-carboxylic acid",
    "cn_name": null,
    "alternate_name": "1<em>H</em>-Pyrazole-3-carboxylic acid, 4-iodo-;Pyrazole-3-carboxylic acid, 4-iodo-;Pyrazole-3(<em>or</em> 5)-carboxylic acid, 4-iodo-;4-Iodo-1<em>H</em>-pyrazole-3-carboxylic acid",
    "duplicated_cas_no": "371228-74-9;384342-70-5;1048937-93-4;1092682-98-8",
    "SMILES": "C(O)(=O)C=1C(I)=CNN1",
    "meta_data": {
        "InChI": "InChI=1S/C4H3IN2O2/c5-2-1-6-7-3(2)4(8)9/h1H,(H,6,7)(H,8,9)",
        "InChIKey": null,
        "Canonical SMILES": "O=C(O)C1=NNC=C1I",
        "Molecular Formula": "C<sub>4</sub>H<sub>3</sub>IN<sub>2</sub>O<sub>2</sub>",
        "Molecular Mass": "237.98",
        "Melting Point": "197 °C"
    }
}