{
    "cas_no": "3674-09-7",
    "key_name": "Propanoic acid, 2,3-dichloro-, methyl ester",
    "cn_name": "2,3-二氯丙酸甲酯;",
    "alternate_name": "Propanoic acid, 2,3-dichloro-, methyl ester;Propionic acid, 2,3-dichloro-, methyl ester;Methyl α,β-dichloropropionate;Methyl 2,3-dichloropropionate;Methyl 2,3-dichloropropanoate;2,3-Dichloropropanoic acid methyl ester;2,3-Dichloropropionic acid methyl ester;NSC 67382;NSC 9373",
    "duplicated_cas_no": "4093-55-4",
    "SMILES": "C(C(OC)=O)(CCl)Cl",
    "meta_data": {
        "InChI": "InChI=1S/C4H6Cl2O2/c1-8-4(7)3(6)2-5/h3H,2H2,1H3",
        "InChIKey": null,
        "Canonical SMILES": "O=C(OC)C(Cl)CCl",
        "Molecular Formula": "C<sub>4</sub>H<sub>6</sub>Cl<sub>2</sub>O<sub>2</sub>",
        "Molecular Mass": "157.00",
        "Boiling Point": "92 °C @ Press: 50 Torr",
        "Density": "1.3282 g/cm³ @ Temp: 20 °C"
    }
}