{
    "cas_no": "356-24-1",
    "key_name": "Methyl 2,2,3,3,4,4,4-heptafluorobutanoate",
    "cn_name": "七氟丁酸甲酯;",
    "alternate_name": "Butanoic acid, 2,2,3,3,4,4,4-heptafluoro-, methyl ester;Butyric acid, heptafluoro-, methyl ester;Butanoic acid, heptafluoro-, methyl ester;Methyl 2,2,3,3,4,4,4-heptafluorobutanoate;Methyl heptafluorobutyrate;Methyl perfluorobutyrate;Heptafluorobutyric acid methyl ester;Methyl perfluorobutanoate;Methyl heptafluorobutanoate;2,2,3,3,4,4,4-Heptafluoro-butyric acid methyl ester",
    "duplicated_cas_no": "",
    "SMILES": "C(C(C(F)(F)F)(F)F)(C(OC)=O)(F)F",
    "meta_data": {
        "InChI": "InChI=1S/C5H3F7O2/c1-14-2(13)3(6,7)4(8,9)5(10,11)12/h1H3",
        "InChIKey": null,
        "Canonical SMILES": "O=C(OC)C(F)(F)C(F)(F)C(F)(F)F",
        "Molecular Formula": "C<sub>5</sub>H<sub>3</sub>F<sub>7</sub>O<sub>2</sub>",
        "Molecular Mass": "228.06",
        "Boiling Point": "80 °C",
        "Melting Point": "-86 °C",
        "Density": "1.472 g/cm³"
    }
}