{
    "cas_no": "2216-15-1",
    "key_name": "<em>N</em>,<em>N</em>-Diethyl-4-nitrobenzenamine",
    "cn_name": "N,N-二乙基-4-硝基苯胺;",
    "alternate_name": "Benzenamine, <em>N</em>,<em>N</em>-diethyl-4-nitro-;Aniline, <em>N</em>,<em>N</em>-diethyl-<em>p</em>-nitro-;<em>N</em>,<em>N</em>-Diethyl-4-nitrobenzenamine;<em>N</em>,<em>N</em>-Diethyl-4-nitroaniline;<em>N</em>,<em>N</em>-Diethyl-<em>p</em>-nitroaniline;<em>p</em>-Nitro-<em>N</em>,<em>N</em>-diethylaniline;4-Nitro-<em>N</em>,<em>N</em>-diethylaniline;4-(Diethylamino)nitrobenzene",
    "duplicated_cas_no": "",
    "SMILES": "N(CC)(CC)C1=CC=C(N(=O)=O)C=C1",
    "meta_data": {
        "InChI": "InChI=1S/C10H14N2O2/c1-3-11(4-2)9-5-7-10(8-6-9)12(13)14/h5-8H,3-4H2,1-2H3",
        "InChIKey": null,
        "Canonical SMILES": "O=N(=O)C1=CC=C(C=C1)N(CC)CC",
        "Molecular Formula": "C<sub>10</sub>H<sub>14</sub>N<sub>2</sub>O<sub>2</sub>",
        "Molecular Mass": "194.23",
        "Melting Point": "77.5 °C"
    }
}