{
    "cas_no": "15733-89-8",
    "key_name": "2-Hydroxycinchoninic acid",
    "cn_name": "2-羟基喹啉-4-羧酸;2-羟基-4-羧基喹啉;",
    "alternate_name": "4-Quinolinecarboxylic acid, 1,2-dihydro-2-oxo-;Cinchoninic acid, 2-hydroxy-;1,2-Dihydro-2-oxo-4-quinolinecarboxylic acid;2-Hydroxy-4-quinolinecarboxylic acid;2-Hydroxycinchoninic acid;4-Carboxycarbostyril;NSC 3564;2-Hydroxyquinoline-4-carboxylic acid;2-Oxo-1,2-dihydroquinoline-4-carboxylic acid;2-Hydroxy-4-carboxyquinoline;2-Oxo-1<em>H</em>-quinoline-4-carboxylic acid",
    "duplicated_cas_no": "22757-75-1",
    "SMILES": "C(O)(=O)C=1C=2C(NC(=O)C1)=CC=CC2",
    "meta_data": {
        "InChI": "InChI=1S/C10H7NO3/c12-9-5-7(10(13)14)6-3-1-2-4-8(6)11-9/h1-5H,(H,11,12)(H,13,14)",
        "InChIKey": null,
        "Canonical SMILES": "O=C(O)C1=CC(=O)NC=2C=CC=CC21",
        "Molecular Formula": "C<sub>10</sub>H<sub>7</sub>NO<sub>3</sub>",
        "Molecular Mass": "189.17",
        "Melting Point": "343 °C"
    }
}