{
    "cas_no": "6294-31-1",
    "key_name": "Dihexyl sulfide",
    "cn_name": "二己硫醚;己硫醚;",
    "alternate_name": "Hexane, 1,1′-thiobis-;Hexyl sulfide;1,1′-Thiobis[hexane];Dihexyl sulfide;Di-<em>n</em>-hexyl sulfide;7-Thiatridecane;SFI 6R;NSC 9287;Dihexyl thioether;1-Hexylsulfanylhexane",
    "duplicated_cas_no": "",
    "SMILES": "S(CCCCCC)CCCCCC",
    "meta_data": {
        "InChI": "InChI=1S/C12H26S/c1-3-5-7-9-11-13-12-10-8-6-4-2/h3-12H2,1-2H3",
        "InChIKey": null,
        "Canonical SMILES": "S(CCCCCC)CCCCCC",
        "Molecular Formula": "C<sub>12</sub>H<sub>26</sub>S",
        "Molecular Mass": "202.40",
        "Boiling Point": "230 °C"
    }
}