{
    "cas_no": "892-48-8",
    "key_name": "5′-Chloro-5′-deoxyadenosine",
    "cn_name": null,
    "alternate_name": "Adenosine, 5′-chloro-5′-deoxy-;5′-Chloro-5′-deoxyadenosine;5′-Deoxy-5′-chloroadenosine",
    "duplicated_cas_no": "",
    "SMILES": "O[C@H]1[C@H](N2C=3C(N=C2)=C(N)N=CN3)O[C@H](CCl)[C@H]1O",
    "meta_data": {
        "InChI": "InChI=1S/C10H12ClN5O3/c11-1-4-6(17)7(18)10(19-4)16-3-15-5-8(12)13-2-14-9(5)16/h2-4,6-7,10,17-18H,1H2,(H2,12,13,14)/t4-,6-,7-,10-/m1/s1",
        "InChIKey": null,
        "Canonical SMILES": "ClCC1OC(N2C=NC=3C(=NC=NC32)N)C(O)C1O",
        "Molecular Formula": "C<sub>10</sub>H<sub>12</sub>ClN<sub>5</sub>O<sub>3</sub>",
        "Molecular Mass": "285.69",
        "Melting Point": "78-85 °C"
    }
}