{
    "cas_no": "113893-02-0",
    "key_name": "5-Bromo-2-methoxy-4,6-dimethyl-3-pyridinecarbonitrile",
    "cn_name": null,
    "alternate_name": "3-Pyridinecarbonitrile, 5-bromo-2-methoxy-4,6-dimethyl-;5-Bromo-2-methoxy-4,6-dimethyl-3-pyridinecarbonitrile;3-Bromo-2,4-dimethyl-6-methoxypyridine-5-carbonitrile",
    "duplicated_cas_no": "",
    "SMILES": "O(C)C1=C(C#N)C(C)=C(Br)C(C)=N1",
    "meta_data": {
        "InChI": "InChI=1S/C9H9BrN2O/c1-5-7(4-11)9(13-3)12-6(2)8(5)10/h1-3H3",
        "InChIKey": null,
        "Canonical SMILES": "N#CC1=C(N=C(C(Br)=C1C)C)OC",
        "Molecular Formula": "C<sub>9</sub>H<sub>9</sub>BrN<sub>2</sub>O",
        "Molecular Mass": "241.08",
        "Melting Point": "95-98 °C"
    }
}