{
    "cas_no": "10049-08-8",
    "key_name": "Ruthenium trichloride",
    "cn_name": "三氯化钌;",
    "alternate_name": "Ruthenium chloride (RuCl<sub>3</sub>);Dichlororuthenium chloride ((RuCl<sub>2</sub>)Cl);Ruthenium trichloride;Ruthenium(III) chloride;Ruthenium chloride",
    "duplicated_cas_no": "",
    "SMILES": "[Ru](Cl)(Cl)Cl",
    "meta_data": {
        "InChI": "InChI=1S/3ClH.Ru/h3*1H;/q;;;+3/p-3",
        "InChIKey": null,
        "Canonical SMILES": "Cl[Ru](Cl)Cl",
        "Molecular Formula": "Cl<sub>3</sub>Ru",
        "Molecular Mass": "",
        "Melting Point": "600 °C"
    }
}