{
    "cas_no": "727-99-1",
    "key_name": "Phenyl[2-(trifluoromethyl)phenyl]methanone",
    "cn_name": "2-(三氟甲基)苯并苯酮;2-(三氟甲基)苯甲酮;2-(三氟甲基)苯并苯酮;",
    "alternate_name": "Methanone, phenyl[2-(trifluoromethyl)phenyl]-;Benzophenone, 2-(trifluoromethyl)-;Phenyl[2-(trifluoromethyl)phenyl]methanone;2-(Trifluoromethyl)benzophenone",
    "duplicated_cas_no": "",
    "SMILES": "C(=O)(C1=C(C(F)(F)F)C=CC=C1)C2=CC=CC=C2",
    "meta_data": {
        "InChI": "InChI=1S/C14H9F3O/c15-14(16,17)12-9-5-4-8-11(12)13(18)10-6-2-1-3-7-10/h1-9H",
        "InChIKey": null,
        "Canonical SMILES": "O=C(C=1C=CC=CC1)C=2C=CC=CC2C(F)(F)F",
        "Molecular Formula": "C<sub>14</sub>H<sub>9</sub>F<sub>3</sub>O",
        "Molecular Mass": "250.22",
        "Boiling Point": "175-178 °C @ Press: 31 Torr",
        "Melting Point": "61 °C"
    }
}