{
    "cas_no": "58880-43-6",
    "key_name": "10(9<em>H</em>)-Acridineacetic acid, 9-oxo-, sodium salt (1:1)",
    "cn_name": null,
    "alternate_name": "10(9<em>H</em>)-Acridineacetic acid, 9-oxo-, sodium salt (1:1);10(9<em>H</em>)-Acridineacetic acid, 9-oxo-, sodium salt;10-Carboxymethyl-9-acridanone sodium salt;Sodium 9-oxo-10-acridineacetate;L 1;Sodium 9,10-dihydro-9-oxo-10-acridineacetate;<em>N</em>-(Carboxymethyl)-9-acridone sodium salt;Camedon;Camedone;Neovir",
    "duplicated_cas_no": "351531-53-8;144696-36-6",
    "SMILES": "C(C(O)=O)N1C=2C(C(=O)C=3C1=CC=CC3)=CC=CC2.[Na]",
    "meta_data": {
        "InChI": "InChI=1S/C15H11NO3.Na/c17-14(18)9-16-12-7-3-1-5-10(12)15(19)11-6-2-4-8-13(11)16;/h1-8H,9H2,(H,17,18);",
        "InChIKey": null,
        "Canonical SMILES": "[Na].O=C(O)CN1C=2C=CC=CC2C(=O)C=3C=CC=CC31",
        "Molecular Formula": "C<sub>15</sub>H<sub>11</sub>NO<sub>3</sub>.Na",
        "Molecular Mass": "",
        "Melting Point": "360-370 °C"
    }
}