{
    "cas_no": "60526-81-0",
    "key_name": "1-(1,1-Dimethylheptyl)-3,5-dimethoxybenzene",
    "cn_name": "1-(1,1-二甲基庚基)-3,5-二甲氧基苯;",
    "alternate_name": "Benzene, 1-(1,1-dimethylheptyl)-3,5-dimethoxy-;1-(1,1-Dimethylheptyl)-3,5-dimethoxybenzene;5-(1,1-Dimethylheptyl)resorcinol dimethyl ether;2,6-Dimethoxy-4-(1,1-dimethylheptyl)benzene;5-(1,1-Dimethylheptyl)-1,3-dimethoxybenzene;1,3-Dimethoxy-5-(2-methyloctan-2-yl)benzene;1,3-Dimethoxy-5-(1,1-dimethylheptyl)benzene",
    "duplicated_cas_no": "",
    "SMILES": "C(CCCCCC)(C)(C)C1=CC(OC)=CC(OC)=C1",
    "meta_data": {
        "InChI": "InChI=1S/C17H28O2/c1-6-7-8-9-10-17(2,3)14-11-15(18-4)13-16(12-14)19-5/h11-13H,6-10H2,1-5H3",
        "InChIKey": null,
        "Canonical SMILES": "O(C=1C=C(OC)C=C(C1)C(C)(C)CCCCCC)C",
        "Molecular Formula": "C<sub>17</sub>H<sub>28</sub>O<sub>2</sub>",
        "Molecular Mass": "264.40",
        "Boiling Point": "122 °C @ Press: 0.5 Torr",
        "Density": "0.9558 g/cm³ @ Temp: 20 °C"
    }
}