{
    "cas_no": "123-15-9",
    "key_name": "(±)-2-Methylpentanal",
    "cn_name": "2-甲基戊醛;",
    "alternate_name": "Pentanal, 2-methyl-;Valeraldehyde, 2-methyl-;2-Methylpentanal;2-Methylvaleraldehyde;α-Methylpentanal;2-Formylpentane;2-Methylvaleric aldehyde;(±)-2-Methylpentanal;NSC 49351;α-Methylvaleraldehyde",
    "duplicated_cas_no": "69685-10-5",
    "SMILES": "C(CCC)(C=O)C",
    "meta_data": {
        "InChI": "InChI=1S/C6H12O/c1-3-4-6(2)5-7/h5-6H,3-4H2,1-2H3",
        "InChIKey": null,
        "Canonical SMILES": "O=CC(C)CCC",
        "Molecular Formula": "C<sub>6</sub>H<sub>12</sub>O",
        "Molecular Mass": "100.16",
        "Boiling Point": "117 °C",
        "Density": "0.8092 g/cm³"
    }
}