{
    "cas_no": "7778-53-2",
    "key_name": "Tripotassium phosphate",
    "cn_name": "磷酸钾;磷酸三钾;",
    "alternate_name": "Phosphoric acid, potassium salt (1:3);Phosphoric acid, tripotassium salt;Tripotassium phosphate;Potassium orthophosphate;Potassium phosphate;Tripotassium orthophosphate;Potassium phosphate (K<sub>3</sub>PO<sub>4</sub>);Potassium tribasic phosphate;SA 811",
    "duplicated_cas_no": "44042-47-9;1017687-06-7;1269628-80-9",
    "SMILES": "P(=O)(O)(O)O.[K]",
    "meta_data": {
        "InChI": "InChI=1S/3K.H3O4P/c;;;1-5(2,3)4/h;;;(H3,1,2,3,4)",
        "InChIKey": null,
        "Canonical SMILES": "[K].O=P(O)(O)O",
        "Molecular Formula": "H<sub>3</sub>O<sub>4</sub>P.3K",
        "Molecular Mass": "",
        "Melting Point": "1340 °C",
        "Density": "0.3027 g/cm³ @ Temp: 409 °C; Press: 2.26 x 10⁻⁴ Torr"
    }
}