{
    "cas_no": "535-17-1",
    "key_name": "2-Acetoxypropionic acid",
    "cn_name": "(±)-2-乙酸基丙酸;",
    "alternate_name": "Propanoic acid, 2-(acetyloxy)-;Lactic acid, acetate;2-(Acetyloxy)propanoic acid;2-Acetoxypropanoic acid;Acetyllactic acid;α-Acetoxypropionic acid;<em>O</em>-Acetyllactic acid;2-Acetoxypropionic acid;(±)-α-Acetoxypropionic acid;<span class=\"text-smallcaps\">DL</span>-<em>O</em>-Acetyllactic acid;NSC 402126",
    "duplicated_cas_no": "3853-80-3",
    "SMILES": "C(OC(C)=O)(C(O)=O)C",
    "meta_data": {
        "InChI": "InChI=1S/C5H8O4/c1-3(5(7)8)9-4(2)6/h3H,1-2H3,(H,7,8)",
        "InChIKey": null,
        "Canonical SMILES": "O=C(O)C(OC(=O)C)C",
        "Molecular Formula": "C<sub>5</sub>H<sub>8</sub>O<sub>4</sub>",
        "Molecular Mass": "132.11",
        "Boiling Point": "136-137 °C @ Press: 16 Torr",
        "Melting Point": "57 °C",
        "Density": "1.175 g/cm³ @ Temp: 25 °C"
    }
}