{
    "cas_no": "329-98-6",
    "key_name": "Phenylmethylsulfonyl fluoride",
    "cn_name": "苯甲基磺酰氟;苯甲磺酰氟;",
    "alternate_name": "Benzenemethanesulfonyl fluoride;α-Toluenesulfonyl fluoride;Phenylmethanesulfonyl fluoride;Phenylmethylsulfonyl fluoride;PMSF;NSC 88499;Benzylsulfonyl fluoride;MeSH ID: D010664",
    "duplicated_cas_no": "",
    "SMILES": "C(S(F)(=O)=O)C1=CC=CC=C1",
    "meta_data": {
        "InChI": "InChI=1S/C7H7FO2S/c8-11(9,10)6-7-4-2-1-3-5-7/h1-5H,6H2",
        "InChIKey": null,
        "Canonical SMILES": "O=S(=O)(F)CC=1C=CC=CC1",
        "Molecular Formula": "C<sub>7</sub>H<sub>7</sub>FO<sub>2</sub>S",
        "Molecular Mass": "174.19",
        "Boiling Point": "146.2 °C @ Press: 83 Torr",
        "Melting Point": "90 °C"
    }
}