{
    "cas_no": "10409-54-8",
    "key_name": "2-Bromoisobutyrophenone",
    "cn_name": null,
    "alternate_name": "1-Propanone, 2-bromo-2-methyl-1-phenyl-;Propiophenone, 2-bromo-2-methyl-;2-Bromo-2-methyl-1-phenyl-1-propanone;2-Bromo-2-methylpropiophenone;α-Bromoisobutyrophenone;2-Bromoisobutyrophenone;2-Benzoyl-2-bromopropane;α,α-Dimethylphenacyl bromide;α-Bromoisopropyl phenyl ketone",
    "duplicated_cas_no": "",
    "SMILES": "C(C(Br)(C)C)(=O)C1=CC=CC=C1",
    "meta_data": {
        "InChI": "InChI=1S/C10H11BrO/c1-10(2,11)9(12)8-6-4-3-5-7-8/h3-7H,1-2H3",
        "InChIKey": null,
        "Canonical SMILES": "O=C(C=1C=CC=CC1)C(Br)(C)C",
        "Molecular Formula": "C<sub>10</sub>H<sub>11</sub>BrO",
        "Molecular Mass": "227.10",
        "Boiling Point": "135-137 °C @ Press: 17 Torr",
        "Density": "1.3613 g/cm³ @ Temp: 14.400009765625 °C"
    }
}