{
    "cas_no": "4318-76-7",
    "key_name": "2,5-Diaminopyridine",
    "cn_name": "2,5-二氨基吡啶;",
    "alternate_name": "2,5-Pyridinediamine;Pyridine, 2,5-diamino-;2,5-Diaminopyridine;NSC 175741",
    "duplicated_cas_no": "",
    "SMILES": "NC=1C=CC(N)=NC1",
    "meta_data": {
        "InChI": "InChI=1S/C5H7N3/c6-4-1-2-5(7)8-3-4/h1-3H,6H2,(H2,7,8)",
        "InChIKey": null,
        "Canonical SMILES": "N=1C=C(N)C=CC1N",
        "Molecular Formula": "C<sub>5</sub>H<sub>7</sub>N<sub>3</sub>",
        "Molecular Mass": "109.13",
        "Melting Point": "110.3 °C"
    }
}