{
    "cas_no": "41150-48-5",
    "key_name": "1-[4-(4-Chlorophenoxy)phenyl]ethanone",
    "cn_name": null,
    "alternate_name": "Ethanone, 1-[4-(4-chlorophenoxy)phenyl]-;1-[4-(4-Chlorophenoxy)phenyl]ethanone;4′-(4-Chlorophenoxy)acetophenone;4-(4-Chlorophenoxy)acetophenone;4′-(<em>p</em>-Chlorophenoxy)acetophenone;1-(4-(4-Chlorophenoxy)phenyl)ethan-1-one",
    "duplicated_cas_no": "",
    "SMILES": "O(C1=CC=C(C(C)=O)C=C1)C2=CC=C(Cl)C=C2",
    "meta_data": {
        "InChI": "InChI=1S/C14H11ClO2/c1-10(16)11-2-6-13(7-3-11)17-14-8-4-12(15)5-9-14/h2-9H,1H3",
        "InChIKey": null,
        "Canonical SMILES": "O=C(C1=CC=C(OC2=CC=C(Cl)C=C2)C=C1)C",
        "Molecular Formula": "C<sub>14</sub>H<sub>11</sub>ClO<sub>2</sub>",
        "Molecular Mass": "246.69",
        "Boiling Point": "165-171 °C @ Press: 4 Torr",
        "Melting Point": "63-65 °C"
    }
}