{
    "cas_no": "3934-81-4",
    "key_name": "2,3-Dihydroxy-4-methoxybenzoic acid",
    "cn_name": "2,3-二羟基-4-甲氧基苯甲酸;",
    "alternate_name": "Benzoic acid, 2,3-dihydroxy-4-methoxy-;<em>o</em>-Pyrocatechuic acid, 4-methoxy-;2,3-Dihydroxy-4-methoxybenzoic acid;2,3-Dihydroxy-<em>p</em>-anisic acid;NSC 156949",
    "duplicated_cas_no": "",
    "SMILES": "C(O)(=O)C1=C(O)C(O)=C(OC)C=C1",
    "meta_data": {
        "InChI": "InChI=1S/C8H8O5/c1-13-5-3-2-4(8(11)12)6(9)7(5)10/h2-3,9-10H,1H3,(H,11,12)",
        "InChIKey": null,
        "Canonical SMILES": "O=C(O)C1=CC=C(OC)C(O)=C1O",
        "Molecular Formula": "C<sub>8</sub>H<sub>8</sub>O<sub>5</sub>",
        "Molecular Mass": "184.15",
        "Melting Point": "234 °C"
    }
}