{
    "cas_no": "61-12-1",
    "key_name": "Dibucaine hydrochloride",
    "cn_name": "盐酸地布卡因;盐酸辛可卡因;2-丁氧基-N-(2-二乙氨基乙基)-4-喹啉甲酰胺盐酸盐;",
    "alternate_name": "4-Quinolinecarboxamide, 2-butoxy-<em>N</em>-[2-(diethylamino)ethyl]-, hydrochloride (1:1);Cinchoninamide, 2-butoxy-<em>N</em>-[2-(diethylamino)ethyl]-, monohydrochloride;4-Quinolinecarboxamide, 2-butoxy-<em>N</em>-[2-(diethylamino)ethyl]-, monohydrochloride;Benzolin (local anesthetic);2-<em>n</em>-Butoxy-<em>N</em>-(2-diethylaminoethyl)cinchoninamide hydrochloride;2-Butoxy-<em>N</em>-(2-diethylaminoethyl)cinchoninamide hydrochloride;2-Butoxy-<em>N</em>-(2-diethylaminoethyl)cinchoninic acid amide hydrochloride;Cinchocaine hydrochloride;Cinchocainium chloride;Dibucaine hydrochloride;Nupercaine hydrochloride;Percaine;Sovcaine;Cincaine chloride;Benzolin;Sovcain;Percain;Percamin S;Cincaine;2-Butoxy-<em>N</em>-(2-(diethylamino)ethyl)quinoline-4-carboxamide hydrochloride",
    "duplicated_cas_no": "",
    "SMILES": "C(NCCN(CC)CC)(=O)C=1C2=C(N=C(OCCCC)C1)C=CC=C2.Cl",
    "meta_data": {
        "InChI": "InChI=1S/C20H29N3O2.ClH/c1-4-7-14-25-19-15-17(16-10-8-9-11-18(16)22-19)20(24)21-12-13-23(5-2)6-3;/h8-11,15H,4-7,12-14H2,1-3H3,(H,21,24);1H",
        "InChIKey": null,
        "Canonical SMILES": "Cl.O=C(NCCN(CC)CC)C=1C=C(N=C2C=CC=CC21)OCCCC",
        "Molecular Formula": "C<sub>20</sub>H<sub>29</sub>N<sub>3</sub>O<sub>2</sub>.ClH",
        "Molecular Mass": "",
        "Melting Point": "94 °C (decomp)"
    }
}