{
    "cas_no": "599-66-6",
    "key_name": "1,1′-Sulfonylbis[4-methylbenzene]",
    "cn_name": "二对甲苯基砜;",
    "alternate_name": "Benzene, 1,1′-sulfonylbis[4-methyl-;<em>p</em>-Tolyl sulfone;1,1′-Sulfonylbis[4-methylbenzene];4,4′-Dimethyldiphenyl sulfone;Di-<em>p</em>-tolyl sulfone;<em>p</em>,<em>p</em>′-Ditolyl sulfone;Bis(4-methylphenyl) sulfone;4,4′-Ditolyl sulfone;Bis(4-tolyl) sulfone;Bis(<em>p</em>-tolyl) sulfone;NSC 208;Bis(<em>p</em>-methylphenyl) sulfone;4,4′-Sulfonylbis(methylbenzene);1-Methyl-4-(4-methylphenyl)sulfonylbenzene",
    "duplicated_cas_no": "",
    "SMILES": "S(=O)(=O)(C1=CC=C(C)C=C1)C2=CC=C(C)C=C2",
    "meta_data": {
        "InChI": "InChI=1S/C14H14O2S/c1-11-3-7-13(8-4-11)17(15,16)14-9-5-12(2)6-10-14/h3-10H,1-2H3",
        "InChIKey": null,
        "Canonical SMILES": "O=S(=O)(C1=CC=C(C=C1)C)C2=CC=C(C=C2)C",
        "Molecular Formula": "C<sub>14</sub>H<sub>14</sub>O<sub>2</sub>S",
        "Molecular Mass": "246.32",
        "Boiling Point": "406 °C",
        "Melting Point": "159 °C"
    }
}