{
    "cas_no": "15329-69-8",
    "key_name": "(2<em>Z</em>)-4-Oxo-4-[(phenylmethyl)amino]-2-butenoic acid",
    "cn_name": "N-苄基马来酸;N-苯基马来酸;N-苄基马来酸, 98+%;N-苄基马来酸;N-苄基马来酰胺酸;",
    "alternate_name": "2-Butenoic acid, 4-oxo-4-[(phenylmethyl)amino]-, (2<em>Z</em>)-;Maleamic acid, <em>N</em>-benzyl-;2-Butenoic acid, 4-oxo-4-[(phenylmethyl)amino]-, (<em>Z</em>)-;(2<em>Z</em>)-4-Oxo-4-[(phenylmethyl)amino]-2-butenoic acid;<em>N</em>-Benzylmaleamic acid",
    "duplicated_cas_no": "",
    "SMILES": "C(NC(/C=C\\C(O)=O)=O)C1=CC=CC=C1",
    "meta_data": {
        "InChI": "InChI=1S/C11H11NO3/c13-10(6-7-11(14)15)12-8-9-4-2-1-3-5-9/h1-7H,8H2,(H,12,13)(H,14,15)/b7-6-",
        "InChIKey": null,
        "Canonical SMILES": "O=C(O)C=CC(=O)NCC=1C=CC=CC1",
        "Molecular Formula": "C<sub>11</sub>H<sub>11</sub>NO<sub>3</sub>",
        "Molecular Mass": "205.21",
        "Melting Point": "138 °C"
    }
}