{
    "cas_no": "693-67-4",
    "key_name": "1-Bromoundecane",
    "cn_name": "2-氨基-4-氯二苯醚;2-氨基-4-氯联苯醚;1-溴十一烷;",
    "alternate_name": "Undecane, 1-bromo-;1-Bromoundecane;Undecyl bromide;<em>n</em>-Undecyl bromide;1-Undecyl bromide;1-Bromo-<em>n</em>-undecane",
    "duplicated_cas_no": "2154467-96-4",
    "SMILES": "C(CCCCCC)CCCCBr",
    "meta_data": {
        "InChI": "InChI=1S/C11H23Br/c1-2-3-4-5-6-7-8-9-10-11-12/h2-11H2,1H3",
        "InChIKey": null,
        "Canonical SMILES": "BrCCCCCCCCCCC",
        "Molecular Formula": "C<sub>11</sub>H<sub>23</sub>Br",
        "Molecular Mass": "235.20",
        "Boiling Point": "137-138 °C",
        "Melting Point": "-9 °C",
        "Density": "1.0521 g/cm³ @ Temp: 20 °C"
    }
}