{
    "cas_no": "4946-22-9",
    "key_name": "4-(Dimethylamino)benzenethiol",
    "cn_name": null,
    "alternate_name": "Benzenethiol, 4-(dimethylamino)-;Benzenethiol, <em>p</em>-(dimethylamino)-;4-(Dimethylamino)benzenethiol;<em>p</em>-(Dimethylamino)benzenethiol;4-(Dimethylamino)thiophenol;<em>p</em>-(Dimethylamino)thiophenol",
    "duplicated_cas_no": "",
    "SMILES": "N(C)(C)C1=CC=C(S)C=C1",
    "meta_data": {
        "InChI": "InChI=1S/C8H11NS/c1-9(2)7-3-5-8(10)6-4-7/h3-6,10H,1-2H3",
        "InChIKey": null,
        "Canonical SMILES": "SC1=CC=C(C=C1)N(C)C",
        "Molecular Formula": "C<sub>8</sub>H<sub>11</sub>NS",
        "Molecular Mass": "153.24",
        "Boiling Point": "122 °C @ Press: 2 Torr",
        "Melting Point": "32 °C"
    }
}