{
    "cas_no": "109-79-5",
    "key_name": "Butanethiol",
    "cn_name": "丁硫醇;正丁硫醇;",
    "alternate_name": "1-Butanethiol;<em>n</em>-Butyl mercaptan;<em>n</em>-Butyl thioalcohol;Thiobutyl alcohol;Butyl mercaptan;Butylthiol;<em>n</em>-Butanethiol;1-Butyl mercaptan;Butanethiol;<em>n</em>-Butylthiol;1-Mercaptobutane;<em>n</em>-Butane-1-thiol",
    "duplicated_cas_no": "",
    "SMILES": "C(CC)CS",
    "meta_data": {
        "InChI": "InChI=1S/C4H10S/c1-2-3-4-5/h5H,2-4H2,1H3",
        "InChIKey": null,
        "Canonical SMILES": "SCCCC",
        "Molecular Formula": "C<sub>4</sub>H<sub>10</sub>S",
        "Molecular Mass": "90.19",
        "Boiling Point": "98.4 °C @ Press: 760 Torr",
        "Melting Point": "-115.7 °C",
        "Density": "0.8337 g/cm³ @ Temp: 20 °C"
    }
}