{
    "cas_no": "16642-92-5",
    "key_name": "(2<em>E</em>)-3-[4-(Trifluoromethyl)phenyl]-2-propenoic acid",
    "cn_name": null,
    "alternate_name": "2-Propenoic acid, 3-[4-(trifluoromethyl)phenyl]-, (2<em>E</em>)-;Cinnamic acid, <em>p</em>-(trifluoromethyl)-, (<em>E</em>)-;2-Propenoic acid, 3-[4-(trifluoromethyl)phenyl]-, (<em>E</em>)-;(2<em>E</em>)-3-[4-(Trifluoromethyl)phenyl]-2-propenoic acid;4-Trifluoromethyl-<em>trans</em>-cinnamic acid;<em>trans</em>-4-Trifluoromethylcinnamic acid;(<em>E</em>)-4-Trifluoromethylcinnamic acid;(<em>E</em>)-3-(4-(Trifluoromethyl)phenyl)acrylic acid;<em>trans</em>-3-(4-Trifluoromethylphenyl)acrylic acid;(<em>E</em>)-<em>p</em>-(Trifluoromethyl)cinnamic acid;(<em>E</em>)-3-(4-Trifluoromethylphenyl)-2-propenoic acid;(E)-3-(4-Trifluoromethylphenyl)acrylic acid;(E)-4-(Trifluoromethyl)cinnamic acid;(E)-3-(4-(Trifluoromethyl)phenyl)-2-propenoic acid",
    "duplicated_cas_no": "",
    "SMILES": "C(F)(F)(F)C1=CC=C(/C=C/C(O)=O)C=C1",
    "meta_data": {
        "InChI": "InChI=1S/C10H7F3O2/c11-10(12,13)8-4-1-7(2-5-8)3-6-9(14)15/h1-6H,(H,14,15)/b6-3+",
        "InChIKey": null,
        "Canonical SMILES": "O=C(O)C=CC1=CC=C(C=C1)C(F)(F)F",
        "Molecular Formula": "C<sub>10</sub>H<sub>7</sub>F<sub>3</sub>O<sub>2</sub>",
        "Molecular Mass": "216.16",
        "Melting Point": "202.0-205.0 °C"
    }
}