{
    "cas_no": "213-46-7",
    "key_name": "Picene",
    "cn_name": null,
    "alternate_name": "Picene;Benzo[<em>a</em>]chrysene;Dibenzo[<em>a</em>,<em>i</em>]phenanthrene;1,2:7,8-Dibenzophenanthrene;NSC 406006;[5]Phenacene",
    "duplicated_cas_no": "",
    "SMILES": "C12=C3C(C=4C(C=C3)=CC=CC4)=CC=C1C=5C(C=C2)=CC=CC5",
    "meta_data": {
        "InChI": "InChI=1S/C22H14/c1-3-7-17-15(5-1)9-11-21-19(17)13-14-20-18-8-4-2-6-16(18)10-12-22(20)21/h1-14H",
        "InChIKey": null,
        "Canonical SMILES": "C=1C=CC2=C(C1)C=CC3=C2C=CC=4C=5C=CC=CC5C=CC43",
        "Molecular Formula": "C<sub>22</sub>H<sub>14</sub>",
        "Molecular Mass": "278.35",
        "Boiling Point": "519 °C",
        "Melting Point": "368 °C"
    }
}