{
    "cas_no": "1131-01-7",
    "key_name": "2-Chloro-<em>N</em>-(2,6-dimethylphenyl)acetamide",
    "cn_name": "2,6-二甲基氯代乙酰苯胺;2-氯-N-(2,6-二甲苯基)乙酰胺;",
    "alternate_name": "Acetamide, 2-chloro-<em>N</em>-(2,6-dimethylphenyl)-;2′,6′-Acetoxylidide, 2-chloro-;2-Chloro-<em>N</em>-(2,6-dimethylphenyl)acetamide;2-Chloro-2′,6′-dimethylacetanilide;Chloroacetamido-2,6-xylidine;Chloroaceto-2,6-xylidide;2-Chloroaceto-2,6-xylidide;2-Chloro-2′,6′-acetoxylidide;<em>N</em>-Chloroacetyl-2,6-dimethylaniline;1-Chloroacetylamino-2,6-dimethylbenzene;2′,6′-Dimethyl-2-chloroacetanilide;<em>N</em>-(2,6-Xylyl)chloroacetamide;<em>N</em>-(2,6-Dimethylphenyl)-2-chloroacetamide;<em>N</em>-(2,6-Dimethylphenyl)chloroacetamide;NSC 37260;<em>N</em>-(2,6-Dimethylphenyl)-2-chloroethanamide",
    "duplicated_cas_no": "1043425-94-0",
    "SMILES": "N(C(CCl)=O)C1=C(C)C=CC=C1C",
    "meta_data": {
        "InChI": "InChI=1S/C10H12ClNO/c1-7-4-3-5-8(2)10(7)12-9(13)6-11/h3-5H,6H2,1-2H3,(H,12,13)",
        "InChIKey": null,
        "Canonical SMILES": "O=C(NC=1C(=CC=CC1C)C)CCl",
        "Molecular Formula": "C<sub>10</sub>H<sub>12</sub>ClNO",
        "Molecular Mass": "197.66",
        "Melting Point": "145-146 °C"
    }
}