{
    "cas_no": "13602-11-4",
    "key_name": "2-Pyridinecarboxylic acid, 6-methyl-, methyl ester",
    "cn_name": null,
    "alternate_name": "2-Pyridinecarboxylic acid, 6-methyl-, methyl ester;Picolinic acid, 6-methyl-, methyl ester;Methyl 6-methyl-2-pyridinecarboxylate;Methyl 6-methylpicolinate;6-Methylpicolinic acid methyl ester;6-Methylpyridine-2-carboxylic acid methyl ester;NSC 109151;6-Methylpyridin-2-carboxylic acid methyl ester;2-Methyl-6-methoxycarbonylpyridine",
    "duplicated_cas_no": "",
    "SMILES": "C(OC)(=O)C=1N=C(C)C=CC1",
    "meta_data": {
        "InChI": "InChI=1S/C8H9NO2/c1-6-4-3-5-7(9-6)8(10)11-2/h3-5H,1-2H3",
        "InChIKey": null,
        "Canonical SMILES": "O=C(OC)C=1N=C(C=CC1)C",
        "Molecular Formula": "C<sub>8</sub>H<sub>9</sub>NO<sub>2</sub>",
        "Molecular Mass": "151.16",
        "Boiling Point": "96-97 °C @ Press: 4 Torr"
    }
}