{
    "cas_no": "69214-19-3",
    "key_name": "6-Chloro-3-phenyl-2-pyridinamine",
    "cn_name": "2-氨基-6-氯-3-苯基吡啶;",
    "alternate_name": "2-Pyridinamine, 6-chloro-3-phenyl-;6-Chloro-3-phenyl-2-pyridinamine;2-Amino-6-chloro-3-phenylpyridine;6-Chloro-3-phenylpyridin-2-amine",
    "duplicated_cas_no": "",
    "SMILES": "NC1=C(C2=CC=CC=C2)C=CC(Cl)=N1",
    "meta_data": {
        "InChI": "InChI=1S/C11H9ClN2/c12-10-7-6-9(11(13)14-10)8-4-2-1-3-5-8/h1-7H,(H2,13,14)",
        "InChIKey": null,
        "Canonical SMILES": "ClC=1N=C(N)C(=CC1)C=2C=CC=CC2",
        "Molecular Formula": "C<sub>11</sub>H<sub>9</sub>ClN<sub>2</sub>",
        "Molecular Mass": "204.66",
        "Melting Point": "155-157 °C"
    }
}