{
    "cas_no": "956274-94-5",
    "key_name": "α,α-Dimethyl-2-[2-[(1<em>E</em>)-2-[4-(trifluoromethyl)phenyl]ethenyl]-1<em>H</em>-benzimidazol-6-yl]benzenemethanol",
    "cn_name": null,
    "alternate_name": "Benzenemethanol, α,α-dimethyl-2-[2-[(1<em>E</em>)-2-[4-(trifluoromethyl)phenyl]ethenyl]-1<em>H</em>-benzimidazol-6-yl]-;α,α-Dimethyl-2-[2-[(1<em>E</em>)-2-[4-(trifluoromethyl)phenyl]ethenyl]-1<em>H</em>-benzimidazol-6-yl]benzenemethanol;JNJ 39439335;Mavatrep",
    "duplicated_cas_no": "",
    "SMILES": "C(=C/C1=CC=C(C(F)(F)F)C=C1)\\C=2NC=3C(N2)=CC=C(C3)C4=C(C(C)(C)O)C=CC=C4",
    "meta_data": {
        "InChI": "InChI=1S/C25H21F3N2O/c1-24(2,31)20-6-4-3-5-19(20)17-10-13-21-22(15-17)30-23(29-21)14-9-16-7-11-18(12-8-16)25(26,27)28/h3-15,31H,1-2H3,(H,29,30)/b14-9+",
        "InChIKey": null,
        "Canonical SMILES": "FC(F)(F)C1=CC=C(C=CC2=NC=3C=CC(=CC3N2)C=4C=CC=CC4C(O)(C)C)C=C1",
        "Molecular Formula": "C<sub>25</sub>H<sub>21</sub>F<sub>3</sub>N<sub>2</sub>O",
        "Molecular Mass": "422.44",
        "Melting Point": "250-251 °C"
    }
}