{
    "cas_no": "2818-70-4",
    "key_name": "6-Iodo-2-methyl-1<em>H</em>-benzimidazole",
    "cn_name": null,
    "alternate_name": "1<em>H</em>-Benzimidazole, 6-iodo-2-methyl-;Benzimidazole, 5-iodo-2-methyl-;Benzimidazole, 5(<em>or</em> 6)-iodo-2-methyl-;1<em>H</em>-Benzimidazole, 5-iodo-2-methyl-;6-Iodo-2-methyl-1<em>H</em>-benzimidazole",
    "duplicated_cas_no": "",
    "SMILES": "CC=1NC=2C(N1)=CC(I)=CC2",
    "meta_data": {
        "InChI": "InChI=1S/C8H7IN2/c1-5-10-7-3-2-6(9)4-8(7)11-5/h2-4H,1H3,(H,10,11)",
        "InChIKey": null,
        "Canonical SMILES": "IC=1C=CC=2NC(=NC2C1)C",
        "Molecular Formula": "C<sub>8</sub>H<sub>7</sub>IN<sub>2</sub>",
        "Molecular Mass": "258.06",
        "Melting Point": "220 °C"
    }
}