{
    "cas_no": "7288-28-0",
    "key_name": "5-Methyl-2,4-bis[(trimethylsilyl)oxy]pyrimidine",
    "cn_name": "O,O-二(三甲基甲硅烷基)胸苷;",
    "alternate_name": "Pyrimidine, 5-methyl-2,4-bis[(trimethylsilyl)oxy]-;Pyrimidine, 5-methyl-2,4-bis(trimethylsiloxy)-;5-Methyl-2,4-bis[(trimethylsilyl)oxy]pyrimidine;<em>O</em>,<em>O</em>-Bis(trimethylsilyl)thymine;2,4-Bis(trimethylsiloxy)-5-methylpyrimidine;2,4-Bis(trimethylsilyloxy)-5-methylpyrimidine;Thymine bis(trimethylsilyl) ether;5-Methyl-2,4-bis(trimethylsilyloxy)pyrimidine;Bis-<em>O</em>-(trimethylsilyl)thymine;2,4-Bis-<em>O</em>-(trimethylsilyl)thymine;2,4-Di-<em>O</em>-(trimethylsilyl)thymine;2,4-Bis(trimethylsilyl)-5-methyluracil;5-Methyl-2,4-bis(trimethylsiloxy)pyrimidine;<em>O</em>,<em>O</em>′-Bis(trimethylsilyl)thymine;NSC 154616",
    "duplicated_cas_no": "55170-67-7;1233524-08-7",
    "SMILES": "O([Si](C)(C)C)C1=NC(O[Si](C)(C)C)=NC=C1C",
    "meta_data": {
        "InChI": "InChI=1S/C11H22N2O2Si2/c1-9-8-12-11(15-17(5,6)7)13-10(9)14-16(2,3)4/h8H,1-7H3",
        "InChIKey": null,
        "Canonical SMILES": "N=1C=C(C(=NC1O[Si](C)(C)C)O[Si](C)(C)C)C",
        "Molecular Formula": "C<sub>11</sub>H<sub>22</sub>N<sub>2</sub>O<sub>2</sub>Si<sub>2</sub>",
        "Molecular Mass": "270.48",
        "Boiling Point": "124 °C @ Press: 19 Torr",
        "Melting Point": "73-75 °C"
    }
}