{
    "cas_no": "19728-63-3",
    "key_name": "Z-Thr-OH",
    "cn_name": "N-苄氧羰基-L-苏氨酸;",
    "alternate_name": "<span class=\"text-smallcaps\">L</span>-Threonine, <em>N</em>-[(phenylmethoxy)carbonyl]-;Threonine, <em>N</em>-carboxy-, <em>N</em>-benzyl ester, <span class=\"text-smallcaps\">L</span>-;<em>N</em>-[(Phenylmethoxy)carbonyl]-<span class=\"text-smallcaps\">L</span>-threonine;<em>N</em>-Carbobenzoxy-<span class=\"text-smallcaps\">L</span>-threonine;<em>N</em>-Benzyloxycarbonyl-<span class=\"text-smallcaps\">L</span>-threonine;Z-Thr-OH;Cbz-Thr-OH;NSC 333749;<em>N</em>-Cbz-<span class=\"text-smallcaps\">L</span>-threonine;(2<em>S</em>,3<em>R</em>)-2-[(Benzyloxycarbonyl)amino]-3-hydroxybutanoic acid;(2R)-2-[(4R,5R)-5-Methyl-2-oxooxazolidine-4-carboxamido]-3-(thiazol-4-yl)propanoic acid",
    "duplicated_cas_no": "1440433-66-8",
    "SMILES": "[C@H](NC(OCC1=CC=CC=C1)=O)([C@@H](C)O)C(O)=O",
    "meta_data": {
        "InChI": "InChI=1S/C12H15NO5/c1-8(14)10(11(15)16)13-12(17)18-7-9-5-3-2-4-6-9/h2-6,8,10,14H,7H2,1H3,(H,13,17)(H,15,16)/t8-,10+/m1/s1",
        "InChIKey": null,
        "Canonical SMILES": "O=C(O)C(NC(=O)OCC=1C=CC=CC1)C(O)C",
        "Molecular Formula": "C<sub>12</sub>H<sub>15</sub>NO<sub>5</sub>",
        "Molecular Mass": "253.25",
        "Melting Point": "103-104 °C"
    }
}