{
    "cas_no": "113-98-4",
    "key_name": "Penicillin G potassium",
    "cn_name": "青霉素钾;苄青霉素钾;(2S,5R,6R)-3,3-二甲基-6-(2-苯乙酰氨基)-7-氧代-4-硫杂-1-氮杂双环[3.2.0]庚烷-2-甲;",
    "alternate_name": "4-Thia-1-azabicyclo[3.2.0]heptane-2-carboxylic acid, 3,3-dimethyl-7-oxo-6-[(2-phenylacetyl)amino]- (2<em>S</em>,5<em>R</em>,6<em>R</em>)-, potassium salt (1:1);4-Thia-1-azabicyclo[3.2.0]heptane-2-carboxylic acid, 3,3-dimethyl-7-oxo-6-(2-phenylacetamido)-, monopotassium salt;4-Thia-1-azabicyclo[3.2.0]heptane-2-carboxylic acid, 3,3-dimethyl-7-oxo-6-[(phenylacetyl)amino]-[2<em>S</em>-(2α,5α,6β)]-, monopotassium salt;Penicillin G, potassium salt;4-Thia-1-azabicyclo[3.2.0]heptane-2-carboxylic acid, 3,3-dimethyl-7-oxo-6-[(phenylacetyl)amino]- (2<em>S</em>,5<em>R</em>,6<em>R</em>)-, monopotassium salt;Benzylpenicillinic acid potassium salt;Benzylpenicillin potassium;Benzylpenicillin potassium salt;Eskacillin;Falapen;Hipercilina;Notaral;Penicillin G potassium;Pentids;Potassium benzylpenicillin;Potassium benzylpenicillinate;Potassium penicillin G;Tabilin;Potassium 2,2-dimethyl-6β-phenylacetamidopenam-3α-carboxylate;Forpen;Hylenta;Hyasorb;Cristapen;Monopen;Megacillin tablets;Scotcil;Potassium 6-(phenylacetamido)penicillanate;Novocillin vet.;Cosmopen;M-Cillin;Pentid;Crytapen;NSC 131815;Pfizerpen",
    "duplicated_cas_no": "55878-83-6",
    "SMILES": "C(O)(=O)[C@@H]1N2[C@@]([C@H](NC(CC3=CC=CC=C3)=O)C2=O)(SC1(C)C)[H].[K]",
    "meta_data": {
        "InChI": "InChI=1S/C16H18N2O4S.K/c1-16(2)12(15(21)22)18-13(20)11(14(18)23-16)17-10(19)8-9-6-4-3-5-7-9;/h3-7,11-12,14H,8H2,1-2H3,(H,17,19)(H,21,22);/t11-,12+,14-;/m1./s1",
        "InChIKey": null,
        "Canonical SMILES": "[K].O=C(O)C1N2C(=O)C(NC(=O)CC=3C=CC=CC3)C2SC1(C)C",
        "Molecular Formula": "C<sub>16</sub>H<sub>18</sub>N<sub>2</sub>O<sub>4</sub>S.K",
        "Molecular Mass": "",
        "Melting Point": "214-217 °C (decomp)"
    }
}