{
    "cas_no": "55-22-1",
    "key_name": "4-Pyridinecarboxylic acid",
    "cn_name": "异烟酸;4-吡啶甲酸;",
    "alternate_name": "4-Pyridinecarboxylic acid;Isonicotinic acid;γ-Picolinic acid;4-Carboxypyridine;4-Picolinic acid;<em>p</em>-Pyridinecarboxylic acid;γ-Pyridinecarboxylic acid;4-Pyridylcarboxylic acid;NSC 1483",
    "duplicated_cas_no": "1580002-27-2",
    "SMILES": "C(O)(=O)C=1C=CN=CC1",
    "meta_data": {
        "InChI": "InChI=1S/C6H5NO2/c8-6(9)5-1-3-7-4-2-5/h1-4H,(H,8,9)",
        "InChIKey": null,
        "Canonical SMILES": "O=C(O)C=1C=CN=CC1",
        "Molecular Formula": "C<sub>6</sub>H<sub>5</sub>NO<sub>2</sub>",
        "Molecular Mass": "123.11",
        "Boiling Point": "119-120 °C @ Press: 1 Torr",
        "Melting Point": "315 °C",
        "Density": "1.47 g/cm³"
    }
}