{
    "cas_no": "3099-29-4",
    "key_name": "2-(Chloromethyl)-6-methylpyridine",
    "cn_name": null,
    "alternate_name": "Pyridine, 2-(chloromethyl)-6-methyl-;2-(Chloromethyl)-6-methylpyridine;6-Chloromethyl-2-picoline;6-Methyl-2-(chloromethyl)pyridine;6-Methyl-2-picolyl chloride;2-Methyl-6-(chloromethyl)pyridine",
    "duplicated_cas_no": "",
    "SMILES": "C(Cl)C=1N=C(C)C=CC1",
    "meta_data": {
        "InChI": "InChI=1S/C7H8ClN/c1-6-3-2-4-7(5-8)9-6/h2-4H,5H2,1H3",
        "InChIKey": null,
        "Canonical SMILES": "ClCC1=NC(=CC=C1)C",
        "Molecular Formula": "C<sub>7</sub>H<sub>8</sub>ClN",
        "Molecular Mass": "141.60",
        "Boiling Point": "118-120 °C @ Press: 65 Torr",
        "Melting Point": "159-161 °C"
    }
}