{
    "cas_no": "332-51-4",
    "key_name": "2-[(4-Fluorophenyl)thio]acetic acid",
    "cn_name": null,
    "alternate_name": "Acetic acid, 2-[(4-fluorophenyl)thio]-;Acetic acid, [(<em>p</em>-fluorophenyl)thio]-;Acetic acid, [(4-fluorophenyl)thio]-;2-[(4-Fluorophenyl)thio]acetic acid;(<em>p</em>-Fluorophenylmercapto)acetic acid;[(4-Fluorophenyl)thio]acetic acid;(<em>p</em>-Fluorophenylthio)acetic acid;2-(4-Fluorophenylthio)acetic acid;[(4-Fluorophenyl)sulfanyl]acetic acid;2-[(4-Fluorophenyl)sulfanyl]acetic acid;2-(4-Fluorophenyl)sulfanylacetic acid",
    "duplicated_cas_no": "",
    "SMILES": "S(CC(O)=O)C1=CC=C(F)C=C1",
    "meta_data": {
        "InChI": "InChI=1S/C8H7FO2S/c9-6-1-3-7(4-2-6)12-5-8(10)11/h1-4H,5H2,(H,10,11)",
        "InChIKey": null,
        "Canonical SMILES": "O=C(O)CSC1=CC=C(F)C=C1",
        "Molecular Formula": "C<sub>8</sub>H<sub>7</sub>FO<sub>2</sub>S",
        "Molecular Mass": "186.20",
        "Melting Point": "70 °C"
    }
}