{
    "cas_no": "1120-02-1",
    "key_name": "Octadecyltrimethylammonium bromide",
    "cn_name": "十八烷基三甲基溴化铵;硬脂基三甲基溴化铵;",
    "alternate_name": "1-Octadecanaminium, <em>N</em>,<em>N</em>,<em>N</em>-trimethyl-, bromide (1:1);Trimethyloctadecylammonium bromide;Ammonium, trimethyloctadecyl-, bromide;1-Octadecanaminium, <em>N</em>,<em>N</em>,<em>N</em>-trimethyl-, bromide;Morpan O;<em>n</em>-Octadecyltrimethylammonium bromide;Softex;Stearyltrimethylammonium bromide;Octadecyltrimethylammonium bromide;<em>N</em>,<em>N</em>,<em>N</em>-Trimethyl-1-octadecanaminium bromide;Eveite B 18;Vulnoc OB;Zeonet B;Trimethylstearylammonium bromide;<em>N</em>,<em>N</em>,<em>N</em>-Trimethyloctadecan-1-ammonium bromide;OTAB;STAB;Catinal STB;Zeonet BF;OTMA;Stearyltrimonium bromide;Catinal STB 70;Steartrimonium bromide;OctMAB",
    "duplicated_cas_no": "",
    "SMILES": "C(CCCCCCCCCCCCCCC)CC[N+](C)(C)C.[Br-]",
    "meta_data": {
        "InChI": "InChI=1S/C21H46N.BrH/c1-5-6-7-8-9-10-11-12-13-14-15-16-17-18-19-20-21-22(2,3)4;/h5-21H2,1-4H3;1H/q+1;/p-1",
        "InChIKey": null,
        "Canonical SMILES": "[Br-].CCCCCCCCCCCCCCCCCC[N+](C)(C)C",
        "Molecular Formula": "C<sub>21</sub>H<sub>46</sub>N.Br",
        "Molecular Mass": "",
        "Melting Point": "230-240 °C (decomp)"
    }
}