{
    "cas_no": "3378-72-1",
    "key_name": "<em>N</em>-(1,1-Dimethylethyl)benzenemethanamine",
    "cn_name": "N-叔丁基苄胺;苄基叔丁胺;",
    "alternate_name": "Benzenemethanamine, <em>N</em>-(1,1-dimethylethyl)-;Benzylamine, <em>N</em>-<em>tert</em>-butyl-;<em>N</em>-(1,1-Dimethylethyl)benzenemethanamine;Benzyl-<em>tert</em>-butylamine;<em>N</em>-Benzyl-<em>N</em>-<em>tert</em>-butylamine;<em>N</em>-Benzyl-<em>tert</em>-butylamine;<em>N</em>-<em>tert</em>-Butylbenzylamine;<em>tert</em>-Butylbenzylamine;<em>N</em>-(<em>tert</em>-Butyl)benzenemethanamine;<em>N</em>-<em>tert</em>-Butyl-<em>N</em>-benzylamine;<em>N</em>-Benzyl-2-methylpropan-2-amine",
    "duplicated_cas_no": "",
    "SMILES": "C(NC(C)(C)C)C1=CC=CC=C1",
    "meta_data": {
        "InChI": "InChI=1S/C11H17N/c1-11(2,3)12-9-10-7-5-4-6-8-10/h4-8,12H,9H2,1-3H3",
        "InChIKey": null,
        "Canonical SMILES": "C=1C=CC(=CC1)CNC(C)(C)C",
        "Molecular Formula": "C<sub>11</sub>H<sub>17</sub>N",
        "Molecular Mass": "163.26",
        "Boiling Point": "80-85 °C @ Press: 5 Torr",
        "Density": "0.899 g/cm³ @ Temp: 25 °C"
    }
}