{
    "cas_no": "2409-52-1",
    "key_name": "1,4-Diethyl 2-methylenebutanedioate",
    "cn_name": null,
    "alternate_name": "Butanedioic acid, 2-methylene-, 1,4-diethyl ester;Succinic acid, methylene-, diethyl ester;Butanedioic acid, methylene-, diethyl ester;Itaconic acid, diethyl ester;1,4-Diethyl 2-methylenebutanedioate;Diethyl itaconate;Ethyl itaconate;Diethyl methylenesuccinate;NSC 1794;NSC 67389;(Methylene)butanedioic acid diethyl ester;1,4-Diethyl 2-methylidenebutanedioate;Biolift 22AR",
    "duplicated_cas_no": "",
    "SMILES": "C(C(C(OCC)=O)=C)C(OCC)=O",
    "meta_data": {
        "InChI": "InChI=1S/C9H14O4/c1-4-12-8(10)6-7(3)9(11)13-5-2/h3-6H2,1-2H3",
        "InChIKey": null,
        "Canonical SMILES": "O=C(OCC)C(=C)CC(=O)OCC",
        "Molecular Formula": "C<sub>9</sub>H<sub>14</sub>O<sub>4</sub>",
        "Molecular Mass": "186.21",
        "Boiling Point": "228 °C",
        "Melting Point": "58.5 °C",
        "Density": "1.0459 g/cm³"
    }
}