{
    "cas_no": "260558-15-4",
    "key_name": "4-Bromo-2-iodo-1-methylbenzene",
    "cn_name": null,
    "alternate_name": "Benzene, 4-bromo-2-iodo-1-methyl-;4-Bromo-2-iodo-1-methylbenzene;4-Bromo-2-iodotoluene",
    "duplicated_cas_no": "",
    "SMILES": "IC1=C(C)C=CC(Br)=C1",
    "meta_data": {
        "InChI": "InChI=1S/C7H6BrI/c1-5-2-3-6(8)4-7(5)9/h2-4H,1H3",
        "InChIKey": null,
        "Canonical SMILES": "BrC1=CC=C(C(I)=C1)C",
        "Molecular Formula": "C<sub>7</sub>H<sub>6</sub>BrI",
        "Molecular Mass": "296.93",
        "Melting Point": "262-267 °C"
    }
}