{
    "cas_no": "564-02-3",
    "key_name": "2,2,3-Trimethylpentane",
    "cn_name": "2,2,3-三甲基丙烷;",
    "alternate_name": "Pentane, 2,2,3-trimethyl-;2,2,3-Trimethylpentane;2-<em>tert</em>-Butylbutane;NSC 73954;(±)-2,2,3-Trimethylpentane",
    "duplicated_cas_no": "",
    "SMILES": "C(C(C)(C)C)(CC)C",
    "meta_data": {
        "InChI": "InChI=1S/C8H18/c1-6-7(2)8(3,4)5/h7H,6H2,1-5H3",
        "InChIKey": null,
        "Canonical SMILES": "CCC(C)C(C)(C)C",
        "Molecular Formula": "C<sub>8</sub>H<sub>18</sub>",
        "Molecular Mass": "114.23",
        "Boiling Point": "110 °C",
        "Melting Point": "-112.2 °C",
        "Density": "0.7219 g/cm³ @ Temp: 15 °C"
    }
}