{
    "cas_no": "672-65-1",
    "key_name": "1-Phenylethyl chloride",
    "cn_name": "1-氯-1-苯乙烷;&alpha;-氯乙基苯;&alpha;-氯苯乙烷;",
    "alternate_name": "Benzene, (1-chloroethyl)-;Benzene, (α-chloroethyl)-;(1-Chloroethyl)benzene;α-Methylbenzyl chloride;α-Phenylethyl chloride;1-Phenylethyl chloride;α-Phenethyl chloride;1-Chloro-1-phenylethane;(α-Chloroethyl)benzene;1-Phenyl-1-chloroethane;1-Phenethyl chloride;α-Chloro-α-methyltoluene;(±)-1-Phenylethyl chloride;(<em>RS</em>)-Phenethyl chloride;(±)-1-Chloro-1-phenylethane",
    "duplicated_cas_no": "38661-82-4",
    "SMILES": "C(C)(Cl)C1=CC=CC=C1",
    "meta_data": {
        "InChI": "InChI=1S/C8H9Cl/c1-7(9)8-5-3-2-4-6-8/h2-7H,1H3",
        "InChIKey": null,
        "Canonical SMILES": "ClC(C=1C=CC=CC1)C",
        "Molecular Formula": "C<sub>8</sub>H<sub>9</sub>Cl",
        "Molecular Mass": "140.61",
        "Boiling Point": "85 °C @ Press: 20 Torr",
        "Melting Point": "46-47 °C",
        "Density": "1.0631 g/cm³ @ Temp: 20 °C"
    }
}