{
    "cas_no": "86672-58-4",
    "key_name": "URB 754",
    "cn_name": null,
    "alternate_name": "4<em>H</em>-3,1-Benzoxazin-4-one, 6-methyl-2-[(4-methylphenyl)amino]-;6-Methyl-2-[(4-methylphenyl)amino]-4<em>H</em>-3,1-benzoxazin-4-one;URB 754",
    "duplicated_cas_no": "",
    "SMILES": "O=C1C=2C(N=C(NC3=CC=C(C)C=C3)O1)=CC=C(C)C2",
    "meta_data": {
        "InChI": "InChI=1S/C16H14N2O2/c1-10-3-6-12(7-4-10)17-16-18-14-8-5-11(2)9-13(14)15(19)20-16/h3-9H,1-2H3,(H,17,18)",
        "InChIKey": null,
        "Canonical SMILES": "O=C1OC(=NC=2C=CC(=CC12)C)NC3=CC=C(C=C3)C",
        "Molecular Formula": "C<sub>16</sub>H<sub>14</sub>N<sub>2</sub>O<sub>2</sub>",
        "Molecular Mass": "266.29",
        "Melting Point": "230-233 °C"
    }
}