{
    "cas_no": "1687-53-2",
    "key_name": "5-Amino-2-methoxyphenol",
    "cn_name": "2-甲氧基-5-氨基苯酚;5-氨基愈创木酚;",
    "alternate_name": "Phenol, 5-amino-2-methoxy-;Guaiacol, 5-amino-;5-Amino-2-methoxyphenol;5-Aminoguaiacol;3-Hydroxy-4-methoxyaniline;2-Methoxy-5-aminophenol;3-Amino-6-methoxyphenol;(3-Hydroxy-4-methoxyphenyl)amine;5-Amino-2-(methyloxy)phenol",
    "duplicated_cas_no": "",
    "SMILES": "O(C)C1=C(O)C=C(N)C=C1",
    "meta_data": {
        "InChI": "InChI=1S/C7H9NO2/c1-10-7-3-2-5(8)4-6(7)9/h2-4,9H,8H2,1H3",
        "InChIKey": null,
        "Canonical SMILES": "OC1=CC(N)=CC=C1OC",
        "Molecular Formula": "C<sub>7</sub>H<sub>9</sub>NO<sub>2</sub>",
        "Molecular Mass": "139.15",
        "Melting Point": "125-127 °C"
    }
}