{
    "cas_no": "680-31-9",
    "key_name": "Hexamethylphosphoramide",
    "cn_name": null,
    "alternate_name": "Phosphoric triamide, <em>N</em>,<em>N</em>,<em>N</em>′,<em>N</em>′,<em>N</em>′′,<em>N</em>′′-hexamethyl-;Phosphoric triamide, hexamethyl-;<em>N</em>,<em>N</em>,<em>N</em>′,<em>N</em>′,<em>N</em>′′,<em>N</em>′′-Hexamethylphosphoric triamide;ENT 50,882;Hempa;Hexametapol;Hexamethylphosphoramide;Hexamethylphosphoric acid triamide;Hexamethylphosphoric triamide;Hexamethylphosphorotriamide;HPT;Phosphoric tris(dimethylamide);Phosphoryl hexamethyltriamide;Tris(dimethylamino)phosphine oxide;Hexamethylorthophosphoric triamide;HMPA;Phosphoric hexamethyltriamide;Phosphoric acid hexamethyltriamide;<em>N</em>,<em>N</em>′,<em>N</em>′′-Hexamethylphosphoramide;Eastman Inhibitor HPT;HMPTA;HMPT;Hexamethyltriamidophosphate;NSC 113131;NSC 7967;Light Stabilizer HPT;[Bis(dimethylamino)phosphoryl]dimethylamine",
    "duplicated_cas_no": "24992-55-0;51557-01-8",
    "SMILES": "P(N(C)C)(N(C)C)(N(C)C)=O",
    "meta_data": {
        "InChI": "InChI=1S/C6H18N3OP/c1-7(2)11(10,8(3)4)9(5)6/h1-6H3",
        "InChIKey": null,
        "Canonical SMILES": "O=P(N(C)C)(N(C)C)N(C)C",
        "Molecular Formula": "C<sub>6</sub>H<sub>18</sub>N<sub>3</sub>OP",
        "Molecular Mass": "179.20",
        "Boiling Point": "233 °C @ Press: 760 Torr",
        "Melting Point": "5-7 °C",
        "Density": "1.03 g/cm³ @ Temp: 20 °C"
    }
}