{
    "cas_no": "104-80-3",
    "key_name": "2,5-Bis[hydroxymethyl]tetrahydrofuran",
    "cn_name": null,
    "alternate_name": "Hexitol, 2,5-anhydro-3,4-dideoxy-;2,5-Furandimethanol, tetrahydro-;2,5-Anhydro-3,4-dideoxyhexitol;2,5-Bis[hydroxymethyl]tetrahydrofuran;Tetrahydro-2,5-furandimethanol;NSC 40741;(Tetrahydrofuran-2,5-diyl)dimethanol;2,5-Dihydroxymethyltetrahydrofuran;2,5-Dihydroxymethyltetrahydrofurane;[5-(Hydroxymethyl)oxolan-2-yl]methanol",
    "duplicated_cas_no": "",
    "SMILES": "C(O)C1OC(CO)CC1",
    "meta_data": {
        "InChI": "InChI=1S/C6H12O3/c7-3-5-1-2-6(4-8)9-5/h5-8H,1-4H2",
        "InChIKey": null,
        "Canonical SMILES": "OCC1OC(CO)CC1",
        "Molecular Formula": "C<sub>6</sub>H<sub>12</sub>O<sub>3</sub>",
        "Molecular Mass": "132.16",
        "Boiling Point": "265 °C",
        "Density": "1.1544 g/cm³ @ Temp: 25 °C"
    }
}