{
    "cas_no": "176199-48-7",
    "key_name": "(+)-2-Aminobicyclo[3.1.0]hexane-2,6-dicarboxylic acid",
    "cn_name": "(1S,2S,5R,6S)-2-氨基二环[3.1.0]己烷-2,6-二羧酸;",
    "alternate_name": "Bicyclo[3.1.0]hexane-2,6-dicarboxylic acid, 2-amino-, (1<em>S</em>,2<em>S</em>,5<em>R</em>,6<em>S</em>)-;Bicyclo[3.1.0]hexane-2,6-dicarboxylic acid, 2-amino-, [1<em>S</em>-(1α,2β,5α,6α)]-;(1<em>S</em>,2<em>S</em>,5<em>R</em>,6<em>S</em>)-2-Aminobicyclo[3.1.0]hexane-2,6-dicarboxylic acid;LY 354740;Eglumegad;Eglumetad;(+)-2-Aminobicyclo[3.1.0]hexane-2,6-dicarboxylic acid;(1S,2S,5R,6S)-2-Aminobicyclo[3.1.0]hexane-2,6-dicarboxylic acidLY354740;LY354740",
    "duplicated_cas_no": "",
    "SMILES": "C(O)(=O)[C@@]1(N)[C@@]2([C@@H](C(O)=O)[C@@]2(CC1)[H])[H]",
    "meta_data": {
        "InChI": "InChI=1S/C8H11NO4/c9-8(7(12)13)2-1-3-4(5(3)8)6(10)11/h3-5H,1-2,9H2,(H,10,11)(H,12,13)/t3-,4-,5-,8-/m0/s1",
        "InChIKey": null,
        "Canonical SMILES": "O=C(O)C1C2CCC(N)(C(=O)O)C12",
        "Molecular Formula": "C<sub>8</sub>H<sub>11</sub>NO<sub>4</sub>",
        "Molecular Mass": "185.18",
        "Melting Point": "270-271 °C"
    }
}