{
    "cas_no": "716-79-0",
    "key_name": "2-Phenylbenzimidazole",
    "cn_name": "2-苯基苯并咪唑;",
    "alternate_name": "1<em>H</em>-Benzimidazole, 2-phenyl-;Benzimidazole, 2-phenyl-;2-Phenyl-1<em>H</em>-benzimidazole;2-Phenylbenzimidazole;Phenzidole;Phenzidol;Phenizidole;Gainex;G 570;NSC 251956;2-Phenyl-1<em>H</em>-benzo[<em>d</em>]imidazole;2-Phenyl-1<em>H</em>-1,3-benzodiazole",
    "duplicated_cas_no": "",
    "SMILES": "C=1(NC=2C(N1)=CC=CC2)C3=CC=CC=C3",
    "meta_data": {
        "InChI": "InChI=1S/C13H10N2/c1-2-6-10(7-3-1)13-14-11-8-4-5-9-12(11)15-13/h1-9H,(H,14,15)",
        "InChIKey": null,
        "Canonical SMILES": "N=1C=2C=CC=CC2NC1C=3C=CC=CC3",
        "Molecular Formula": "C<sub>13</sub>H<sub>10</sub>N<sub>2</sub>",
        "Molecular Mass": "194.23",
        "Melting Point": "293 °C",
        "Density": "1.06 g/cm³ @ Temp: 25.00 °C"
    }
}