{
    "cas_no": "7094-27-1",
    "key_name": "1,1,4-Trimethylcyclohexane",
    "cn_name": "1,1,4-三甲基环己烷;",
    "alternate_name": "Cyclohexane, 1,1,4-trimethyl-;1,1,4-Trimethylcyclohexane",
    "duplicated_cas_no": "",
    "SMILES": "CC1(C)CCC(C)CC1",
    "meta_data": {
        "InChI": "InChI=1S/C9H18/c1-8-4-6-9(2,3)7-5-8/h8H,4-7H2,1-3H3",
        "InChIKey": null,
        "Canonical SMILES": "CC1CCC(C)(C)CC1",
        "Molecular Formula": "C<sub>9</sub>H<sub>18</sub>",
        "Molecular Mass": "126.24",
        "Boiling Point": "134.2-134.9 °C",
        "Density": "0.7722 g/cm³ @ Temp: 20 °C"
    }
}