{
    "cas_no": "4965-33-7",
    "key_name": "7-Chloroquinaldine",
    "cn_name": "7-氯喹哪啶;",
    "alternate_name": "Quinoline, 7-chloro-2-methyl-;Quinaldine, 7-chloro-;7-Chloro-2-methylquinoline;7-Chloroquinaldine",
    "duplicated_cas_no": "",
    "SMILES": "ClC1=CC2=C(C=CC(C)=N2)C=C1",
    "meta_data": {
        "InChI": "InChI=1S/C10H8ClN/c1-7-2-3-8-4-5-9(11)6-10(8)12-7/h2-6H,1H3",
        "InChIKey": null,
        "Canonical SMILES": "ClC=1C=CC=2C=CC(=NC2C1)C",
        "Molecular Formula": "C<sub>10</sub>H<sub>8</sub>ClN",
        "Molecular Mass": "177.63",
        "Boiling Point": "280-282 °C @ Press: 761 Torr",
        "Melting Point": "74.5-76 °C"
    }
}