{
    "cas_no": "103-48-0",
    "key_name": "2-Phenylethyl isobutyrate",
    "cn_name": "异丁酸苯乙酯;异丁酸苄基甲酯;2-甲基丙酸苯乙酯;",
    "alternate_name": "Propanoic acid, 2-methyl-, 2-phenylethyl ester;Isobutyric acid, phenethyl ester;Benzylcarbinyl isobutyrate;Phenethyl isobutyrate;2-Phenylethyl isobutyrate;β-Phenylethyl isobutyrate;Benzylcarbinol isobutyrate;2-Phenylethyl 2-methylpropionate;2-Phenylethyl 2-methylpropanoate;β-Phenylethyl 2-methylpropionate;Phenethyl 2-methylpropionate;β-Phenethyl isobutyrate;β-Phenylethyl butanoate;2-Methylpropanoic acid 2-phenylethyl ester",
    "duplicated_cas_no": "",
    "SMILES": "C(COC(C(C)C)=O)C1=CC=CC=C1",
    "meta_data": {
        "InChI": "InChI=1S/C12H16O2/c1-10(2)12(13)14-9-8-11-6-4-3-5-7-11/h3-7,10H,8-9H2,1-2H3",
        "InChIKey": null,
        "Canonical SMILES": "O=C(OCCC=1C=CC=CC1)C(C)C",
        "Molecular Formula": "C<sub>12</sub>H<sub>16</sub>O<sub>2</sub>",
        "Molecular Mass": "192.25",
        "Boiling Point": "70-71 °C @ Press: 0.5 Torr",
        "Density": "0.9871 g/cm³ @ Temp: 20 °C"
    }
}