{
    "cas_no": "104706-47-0",
    "key_name": "3-Pyrrolidinol, hydrochloride (1:1), (3<em>R</em>)-",
    "cn_name": "(R)-3-羟基吡咯烷盐酸盐;",
    "alternate_name": "3-Pyrrolidinol, hydrochloride (1:1), (3<em>R</em>)-;3-Pyrrolidinol, hydrochloride, (<em>R</em>)-;3-Pyrrolidinol, hydrochloride, (3<em>R</em>)-;(<em>R</em>)-(-)-3-Pyrrolidinol hydrochloride;(<em>R</em>)-(-)-3-Hydroxypyrrolidine hydrochloride;(3<em>R</em>)-3-Hydroxypyrrolidine hydrochloride;(3<em>R</em>)-3-Pyrrolidinol hydrochloride;(<em>R</em>)-3-Hydroxypyrrolidine hydrochloride;(<em>R</em>)-3-Pyrrolidinol hydrochloride;3-(<em>R</em>)-Hydroxypyrrolidine hydrochloride;(<em>R</em>)-Pyrrolidin-3-ol hydrochloride;(3R)-Pyrrolidin-3-ol hydrochloride;(R)-(-)-3-Hydroxypyrrolidine hydrochloride;(R)-3-Hydroxypyrrolidine hydrochloride",
    "duplicated_cas_no": "",
    "SMILES": "O[C@@H]1CCNC1.Cl",
    "meta_data": {
        "InChI": "InChI=1S/C4H9NO.ClH/c6-4-1-2-5-3-4;/h4-6H,1-3H2;1H/t4-;/m1./s1",
        "InChIKey": null,
        "Canonical SMILES": "Cl.OC1CNCC1",
        "Molecular Formula": "C<sub>4</sub>H<sub>9</sub>NO.ClH",
        "Molecular Mass": "",
        "Melting Point": "106-109 °C"
    }
}