{
    "cas_no": "764-22-7",
    "key_name": "Sphinganine",
    "cn_name": null,
    "alternate_name": "1,3-Octadecanediol, 2-amino-, (2<em>S</em>,3<em>R</em>)-;1,3-Octadecanediol, 2-amino-, <span class=\"text-smallcaps\">D</span>-<em>erythro</em>-;1,3-Octadecanediol, 2-amino-, [<em>R</em>-(<em>R</em>*,<em>S</em>*)]-;(2<em>S</em>,3<em>R</em>)-2-Amino-1,3-octadecanediol;C<sub>18</sub>-Dihydrosphingosine;<em>C</em><sub>18</sub>-Sphingosine, dihydro-;Sphinganine;Dihydrosphingosine;<span class=\"text-smallcaps\">D</span>-<em>erythro</em>-2-Amino-1,3-octadecanediol;<span class=\"text-smallcaps\">D</span>-<em>erythro</em>-Sphinganine;<em>erythro</em>-Sphinganine;Octadecasphinganine;<span class=\"text-smallcaps\">D</span>-<em>erythro</em>-C<sub>18</sub>-Dihydrosphingosine;<span class=\"text-smallcaps\">D</span>-<em>erythro</em>-1,3-Dihydroxy-2-aminooctadecane;Dihydro-C<sub>18</sub>-sphingosine;SPC 102860;<span class=\"text-smallcaps\">D</span>-<em>erythro</em>-Dihydrosphingosine;(2<em>S</em>,3<em>R</em>)-Sphinganine;Sphinganine d18:1;C18-Sphinganine",
    "duplicated_cas_no": "",
    "SMILES": "C(CCCCCCCCCCCCCC)[C@H]([C@H](CO)N)O",
    "meta_data": {
        "InChI": "InChI=1S/C18H39NO2/c1-2-3-4-5-6-7-8-9-10-11-12-13-14-15-18(21)17(19)16-20/h17-18,20-21H,2-16,19H2,1H3/t17-,18+/m0/s1",
        "InChIKey": null,
        "Canonical SMILES": "OCC(N)C(O)CCCCCCCCCCCCCCC",
        "Molecular Formula": "C<sub>18</sub>H<sub>39</sub>NO<sub>2</sub>",
        "Molecular Mass": "301.51",
        "Melting Point": "65-105 °C"
    }
}