{
    "cas_no": "20265-97-8",
    "key_name": "Benzenamine, 4-methoxy-, hydrochloride (1:1)",
    "cn_name": null,
    "alternate_name": "Benzenamine, 4-methoxy-, hydrochloride (1:1);<em>p</em>-Anisidine, hydrochloride;Benzenamine, 4-methoxy-, hydrochloride;<em>p</em>-Anisidine monohydrochloride;4-Methoxyaniline hydrochloride;<em>p</em>-Methoxyaniline hydrochloride;<em>p</em>-Methoxyanilinium chloride;4-Methoxybenzenamine hydrochloride",
    "duplicated_cas_no": "",
    "SMILES": "O(C)C1=CC=C(N)C=C1.Cl",
    "meta_data": {
        "InChI": "InChI=1S/C7H9NO.ClH/c1-9-7-4-2-6(8)3-5-7;/h2-5H,8H2,1H3;1H",
        "InChIKey": null,
        "Canonical SMILES": "Cl.O(C1=CC=C(N)C=C1)C",
        "Molecular Formula": "C<sub>7</sub>H<sub>9</sub>NO.ClH",
        "Molecular Mass": "",
        "Melting Point": "185-186 °C"
    }
}