{
    "cas_no": "106012-56-0",
    "key_name": "Imidazo[1,2-<em>a</em>]pyrimidine-3-carboxaldehyde",
    "cn_name": null,
    "alternate_name": "Imidazo[1,2-<em>a</em>]pyrimidine-3-carboxaldehyde",
    "duplicated_cas_no": "",
    "SMILES": "C(=O)C=1N2C(=NC1)N=CC=C2",
    "meta_data": {
        "InChI": "InChI=1S/C7H5N3O/c11-5-6-4-9-7-8-2-1-3-10(6)7/h1-5H",
        "InChIKey": null,
        "Canonical SMILES": "O=CC1=CN=C2N=CC=CN21",
        "Molecular Formula": "C<sub>7</sub>H<sub>5</sub>N<sub>3</sub>O",
        "Molecular Mass": "147.13",
        "Melting Point": "169-171 °C"
    }
}