{
    "cas_no": "3934-23-4",
    "key_name": "2,2,3,3,4,4,5,5,6,6,7,7,8,8,8-Pentadecafluorooctyl 2-methyl-2-propenoate",
    "cn_name": "甲基丙烯酸-1H,1H-全氟代辛酯;",
    "alternate_name": "2-Propenoic acid, 2-methyl-, 2,2,3,3,4,4,5,5,6,6,7,7,8,8,8-pentadecafluorooctyl ester;Methacrylic acid, 2,2,3,3,4,4,5,5,6,6,7,7,8,8,8-pentadecafluorooctyl ester;1-Octanol, 2,2,3,3,4,4,5,5,6,6,7,7,8,8,8-pentadecafluoro-, methacrylate;2,2,3,3,4,4,5,5,6,6,7,7,8,8,8-Pentadecafluorooctyl 2-methyl-2-propenoate;1<em>H</em>,1<em>H</em>-Pentadecafluoro-1-octyl methacrylate;1<em>H</em>,1<em>H</em>-Pentadecafluorooctyl methacrylate;1,1-Dihydroperfluorooctyl methacrylate;Nyebar;1<em>H</em>,1<em>H</em>-Perfluorooctyl methacrylate;2,2,3,3,4,4,5,5,6,6,7,7,8,8,8-Pentadecafluorooctyl methacrylate",
    "duplicated_cas_no": "",
    "SMILES": "C(C(C(C(COC(C(C)=C)=O)(F)F)(F)F)(F)F)(C(C(C(F)(F)F)(F)F)(F)F)(F)F",
    "meta_data": {
        "InChI": "InChI=1S/C12H7F15O2/c1-4(2)5(28)29-3-6(13,14)7(15,16)8(17,18)9(19,20)10(21,22)11(23,24)12(25,26)27/h1,3H2,2H3",
        "InChIKey": null,
        "Canonical SMILES": "O=C(OCC(F)(F)C(F)(F)C(F)(F)C(F)(F)C(F)(F)C(F)(F)C(F)(F)F)C(=C)C",
        "Molecular Formula": "C<sub>12</sub>H<sub>7</sub>F<sub>15</sub>O<sub>2</sub>",
        "Molecular Mass": "468.16",
        "Boiling Point": "95-102 °C @ Press: 20-21 Torr"
    }
}