{
    "cas_no": "52313-87-8",
    "key_name": "1,5-Dimethyl 3-methyl-2-pentenedioate",
    "cn_name": "3-甲基戊烯二酸二甲酯;",
    "alternate_name": "2-Pentenedioic acid, 3-methyl-, 1,5-dimethyl ester;2-Pentenedioic acid, 3-methyl-, dimethyl ester;Glutaconic acid, 3-methyl-, dimethyl ester;1,5-Dimethyl 3-methyl-2-pentenedioate;Dimethyl β-methylglutaconate;Dimethyl 3-methylglutaconate",
    "duplicated_cas_no": "",
    "SMILES": "C(CC(OC)=O)(=CC(OC)=O)C",
    "meta_data": {
        "InChI": "InChI=1S/C8H12O4/c1-6(4-7(9)11-2)5-8(10)12-3/h4H,5H2,1-3H3",
        "InChIKey": null,
        "Canonical SMILES": "O=C(OC)C=C(C)CC(=O)OC",
        "Molecular Formula": "C<sub>8</sub>H<sub>12</sub>O<sub>4</sub>",
        "Molecular Mass": "172.18",
        "Boiling Point": "109-110 °C @ Press: 12 Torr"
    }
}