{
    "cas_no": "140-72-7",
    "key_name": "Cetylpyridinium bromide",
    "cn_name": "溴代十六烷基吡啶;溴化十六烷基吡啶;",
    "alternate_name": "Pyridinium, 1-hexadecyl-, bromide (1:1);1-Hexadecylpyridinium bromide;Pyridinium, 1-hexadecyl-, bromide;Pyridinium, 1-cetyl-, bromide;Cetazol;Cetylpyridinium bromide;Fixanol C;Sterogenol;Bromocet;Seprisan;Nitrogenol;<em>N</em>-Cetylpyridinium bromide;<em>N</em>-Hexadecylpyridinium bromide;Morpan CBP;Acetoquat CPB;Hexadecylpyridinium bromide;1-Cetylpyridinium bromide;Cetasol;TsPB;Hexadecylpyridine bromide;Cetapharm;CPB;Cetazol 80",
    "duplicated_cas_no": "",
    "SMILES": "C(CCCCCCCCCCCCCCC)[N+]=1C=CC=CC1.[Br-]",
    "meta_data": {
        "InChI": "InChI=1S/C21H38N.BrH/c1-2-3-4-5-6-7-8-9-10-11-12-13-14-16-19-22-20-17-15-18-21-22;/h15,17-18,20-21H,2-14,16,19H2,1H3;1H/q+1;/p-1",
        "InChIKey": null,
        "Canonical SMILES": "[Br-].C=1C=C[N+](=CC1)CCCCCCCCCCCCCCCC",
        "Molecular Formula": "C<sub>21</sub>H<sub>38</sub>N.Br",
        "Molecular Mass": "",
        "Melting Point": "64.5 °C"
    }
}