{
    "cas_no": "5440-00-6",
    "key_name": "5,6-Diamino-1,3-dimethyluracil",
    "cn_name": "5,6-二氨基-1,3-二甲基脲嘧啶;",
    "alternate_name": "2,4(1<em>H</em>,3<em>H</em>)-Pyrimidinedione, 5,6-diamino-1,3-dimethyl-;Uracil, 5,6-diamino-1,3-dimethyl-;5,6-Diamino-1,3-dimethyl-2,4(1<em>H</em>,3<em>H</em>)-pyrimidinedione;5,6-Diamino-1,3-dimethyluracil;4,5-Diamino-1,3-dimethyluracil;4,5-Diamino-1,3-dimethylpyrimidine-2,6-dione;1,3-Dimethyl-5,6-diaminouracil;4,5-Diamino-1,3-dimethyl-2,6-dioxotetrahydropyrimidine;5,6-Diamino-1,3-dimethyl-2,4-pyrimidinedione;NSC 15493",
    "duplicated_cas_no": "",
    "SMILES": "NC1=C(N)N(C)C(=O)N(C)C1=O",
    "meta_data": {
        "InChI": "InChI=1S/C6H10N4O2/c1-9-4(8)3(7)5(11)10(2)6(9)12/h7-8H2,1-2H3",
        "InChIKey": null,
        "Canonical SMILES": "O=C1C(N)=C(N)N(C(=O)N1C)C",
        "Molecular Formula": "C<sub>6</sub>H<sub>10</sub>N<sub>4</sub>O<sub>2</sub>",
        "Molecular Mass": "170.17",
        "Melting Point": "278-281 °C"
    }
}