{
    "cas_no": "42753-75-3",
    "key_name": "Methyl 5-amino-2-hydroxybenzoate",
    "cn_name": "5-氨基水杨酸甲酯;",
    "alternate_name": "Benzoic acid, 5-amino-2-hydroxy-, methyl ester;Methyl 5-amino-2-hydroxybenzoate;Methyl 5-aminosalicylate;Methyl <em>m</em>-aminosalicylate;Methyl 2-hydroxy-5-aminobenzoate;5-Amino-2-hydroxybenzoic acid methyl ester;4-Amino-2-(methoxycarbonyl)phenol",
    "duplicated_cas_no": "",
    "SMILES": "C(OC)(=O)C1=C(O)C=CC(N)=C1",
    "meta_data": {
        "InChI": "InChI=1S/C8H9NO3/c1-12-8(11)6-4-5(9)2-3-7(6)10/h2-4,10H,9H2,1H3",
        "InChIKey": null,
        "Canonical SMILES": "O=C(OC)C1=CC(N)=CC=C1O",
        "Molecular Formula": "C<sub>8</sub>H<sub>9</sub>NO<sub>3</sub>",
        "Molecular Mass": "167.16",
        "Melting Point": "97-98 °C"
    }
}