{
    "cas_no": "623-09-6",
    "key_name": "<em>N</em>-Methyl-<em>p</em>-phenylenediamine",
    "cn_name": "N-甲基对苯二胺;N-甲基-1,4-苯二胺;",
    "alternate_name": "1,4-Benzenediamine, <em>N</em><sup>1</sup>-methyl-;<em>p</em>-Phenylenediamine, <em>N</em>-methyl-;1,4-Benzenediamine, <em>N</em>-methyl-;<em>N</em><sup>1</sup>-Methyl-1,4-benzenediamine;<em>N</em>-Methyl-<em>p</em>-phenylenediamine;<em>p</em>-(Methylamino)aniline;<em>N</em>-Methyl-1,4-phenylenediamine;4-(Methylamino)aniline;<em>N</em>-Methylbenzene-1,4-diamine;1-<em>N</em>-Methylbenzene-1,4-diamine",
    "duplicated_cas_no": "",
    "SMILES": "N(C)C1=CC=C(N)C=C1",
    "meta_data": {
        "InChI": "InChI=1S/C7H10N2/c1-9-7-4-2-6(8)3-5-7/h2-5,9H,8H2,1H3",
        "InChIKey": null,
        "Canonical SMILES": "NC1=CC=C(C=C1)NC",
        "Molecular Formula": "C<sub>7</sub>H<sub>10</sub>N<sub>2</sub>",
        "Molecular Mass": "122.17",
        "Boiling Point": "258 °C",
        "Melting Point": "36 °C"
    }
}