{
    "cas_no": "2835-97-4",
    "key_name": "2-Amino-3-methylphenol",
    "cn_name": "2-氨基-3-甲基苯酚;",
    "alternate_name": "Phenol, 2-amino-3-methyl-;<em>m</em>-Cresol, 2-amino-;2-Amino-3-methylphenol;3-Methyl-2-aminophenol;2-Hydroxy-6-methylaniline;2-Amino-<em>m</em>-cresol;2-Amino-3-hydroxytoluene;2-Amino-3-cresol",
    "duplicated_cas_no": "",
    "SMILES": "NC1=C(C)C=CC=C1O",
    "meta_data": {
        "InChI": "InChI=1S/C7H9NO/c1-5-3-2-4-6(9)7(5)8/h2-4,9H,8H2,1H3",
        "InChIKey": null,
        "Canonical SMILES": "OC1=CC=CC(=C1N)C",
        "Molecular Formula": "C<sub>7</sub>H<sub>9</sub>NO",
        "Molecular Mass": "123.15",
        "Melting Point": "157-159 °C"
    }
}