{
    "cas_no": "58-71-9",
    "key_name": "Cephalothin sodium",
    "cn_name": "头孢噻吩钠;(6R,7R)-3-乙酰氧甲基-8-氧代-7-[2-(噻吩-2-基)乙酰氨基]-5-硫杂-1-氮杂双环[4.2.0.]辛-2-烯-2-;",
    "alternate_name": "5-Thia-1-azabicyclo[4.2.0]oct-2-ene-2-carboxylic acid, 3-[(acetyloxy)methyl]-8-oxo-7-[[2-(2-thienyl)acetyl]amino]-, sodium salt (1:1), (6<em>R</em>,7<em>R</em>)-;5-Thia-1-azabicyclo[4.2.0]oct-2-ene-2-carboxylic acid, 3-(hydroxymethyl)-8-oxo-7-[2-(2-thienyl)acetamido]-, acetate (ester), monosodium salt;5-Thia-1-azabicyclo[4.2.0]oct-2-ene-2-carboxylic acid, 3-[(acetyloxy)methyl]-8-oxo-7-[(2-thienylacetyl)amino]-, monosodium salt, (6<em>R</em>-<em>trans</em>)-;5-Thia-1-azabicyclo[4.2.0]oct-2-ene-2-carboxylic acid, 3-[(acetyloxy)methyl]-8-oxo-7-[(2-thienylacetyl)amino]-, monosodium salt, (6<em>R</em>,7<em>R</em>)-;38253;Cephalothin sodium;Sodium cephalothin;Sodium cephalotin;Sodium 3-acetoxymethyl-7β-(2-thienylacetamido)ceph-3-em-4-carboxylate;Sodium 7-(2-thienylacetamido)-3-acetoxymethyl-3-cephem-4-carboxylate;Sodium (thienylacetamido)cephalosporanate;Sodium 7-[2-(2-thienyl)acetamido]cephalosporanate;Keflin;Lilly 38253;Microtin;Cefalothine sodium;Cefalothin sodium;Cepovenin;Ceporacin;Seffin;Cephalothin sodium salt;Sodium cefalotin;Synclotin;Cephation;Lospoven;Coaxin;Averon 1;Toricelocin;Cemastin",
    "duplicated_cas_no": "115699-56-4;63-60-5;11048-05-8;53493-25-7;297760-78-2",
    "SMILES": "C(O)(=O)C=1N2[C@@]([C@H](NC(CC3=CC=CS3)=O)C2=O)(SCC1COC(C)=O)[H].[Na]",
    "meta_data": {
        "InChI": "InChI=1S/C16H16N2O6S2.Na/c1-8(19)24-6-9-7-26-15-12(14(21)18(15)13(9)16(22)23)17-11(20)5-10-3-2-4-25-10;/h2-4,12,15H,5-7H2,1H3,(H,17,20)(H,22,23);/t12-,15-;/m1./s1",
        "InChIKey": null,
        "Canonical SMILES": "[Na].O=C(O)C1=C(COC(=O)C)CSC2N1C(=O)C2NC(=O)CC=3SC=CC3",
        "Molecular Formula": "C<sub>16</sub>H<sub>16</sub>N<sub>2</sub>O<sub>6</sub>S<sub>2</sub>.Na",
        "Molecular Mass": "",
        "Melting Point": "204.5 °C"
    }
}