{
    "cas_no": "7216-42-4",
    "key_name": "4-Pyridinecarboxaldehyde, 1-oxide",
    "cn_name": "4-吡啶醛氮氧化物;",
    "alternate_name": "4-Pyridinecarboxaldehyde, 1-oxide;Isonicotinaldehyde, 1-oxide;4-Pyridinecarboxaldehyde <em>N</em>-oxide;4-Formylpyridine <em>N</em>-oxide;1-Oxy-4-pyridinecarboxaldehyde;Pyridine-4-aldehyde <em>N</em>-oxide;<em>N</em>-Oxopyridine-4-carboxaldehyde",
    "duplicated_cas_no": "",
    "SMILES": "C(=O)C=1C=CN(=O)=CC1",
    "meta_data": {
        "InChI": "InChI=1S/C6H5NO2/c8-5-6-1-3-7(9)4-2-6/h1-5H",
        "InChIKey": null,
        "Canonical SMILES": "O=CC1=CC=N(=O)C=C1",
        "Molecular Formula": "C<sub>6</sub>H<sub>5</sub>NO<sub>2</sub>",
        "Molecular Mass": "123.11",
        "Melting Point": "148-150 °C"
    }
}