{
    "cas_no": "36947-69-0",
    "key_name": "2-(1,1-Dimethylethyl)-1<em>H</em>-imidazole",
    "cn_name": null,
    "alternate_name": "1<em>H</em>-Imidazole, 2-(1,1-dimethylethyl)-;2-(1,1-Dimethylethyl)-1<em>H</em>-imidazole;2-<em>tert</em>-Butylimidazole;2-<em>tert</em>-Butyl-1<em>H</em>-imidazole",
    "duplicated_cas_no": "",
    "SMILES": "C(C)(C)(C)C=1NC=CN1",
    "meta_data": {
        "InChI": "InChI=1S/C7H12N2/c1-7(2,3)6-8-4-5-9-6/h4-5H,1-3H3,(H,8,9)",
        "InChIKey": null,
        "Canonical SMILES": "N=1C=CNC1C(C)(C)C",
        "Molecular Formula": "C<sub>7</sub>H<sub>12</sub>N<sub>2</sub>",
        "Molecular Mass": "124.18",
        "Melting Point": "176-178 °C"
    }
}