{
    "cas_no": "638-28-8",
    "key_name": "2-Chlorohexane",
    "cn_name": "2-氯(正)己烷;",
    "alternate_name": "Hexane, 2-chloro-;2-Chlorohexane;2-Hexyl chloride;(±)-2-Chlorohexane;<em>sec</em>-Hexyl chloride",
    "duplicated_cas_no": "125533-00-8;92385-13-2",
    "SMILES": "C(C(C)Cl)CCC",
    "meta_data": {
        "InChI": "InChI=1S/C6H13Cl/c1-3-4-5-6(2)7/h6H,3-5H2,1-2H3",
        "InChIKey": null,
        "Canonical SMILES": "ClC(C)CCCC",
        "Molecular Formula": "C<sub>6</sub>H<sub>13</sub>Cl",
        "Molecular Mass": "120.62",
        "Boiling Point": "122.5 °C",
        "Density": "0.8720 g/cm³ @ Temp: 20 °C"
    }
}