{
    "cas_no": "1137-41-3",
    "key_name": "4-Aminobenzophenone",
    "cn_name": "4-氨基二苯甲酮;对氨基二苯甲酮;4-苯甲酰基苯胺;4-氨基苯基苯甲酮;4-氨基苯并苯基酮;",
    "alternate_name": "Methanone, (4-aminophenyl)phenyl-;Benzophenone, 4-amino-;(4-Aminophenyl)phenylmethanone;<em>p</em>-Aminobenzophenone;4-Aminobenzophenone;<em>p</em>-Benzoylaniline;4-Benzoylbenzenamine;4-Benzoylaniline;NSC 7665",
    "duplicated_cas_no": "",
    "SMILES": "C(=O)(C1=CC=C(N)C=C1)C2=CC=CC=C2",
    "meta_data": {
        "InChI": "InChI=1S/C13H11NO/c14-12-8-6-11(7-9-12)13(15)10-4-2-1-3-5-10/h1-9H,14H2",
        "InChIKey": null,
        "Canonical SMILES": "O=C(C=1C=CC=CC1)C2=CC=C(N)C=C2",
        "Molecular Formula": "C<sub>13</sub>H<sub>11</sub>NO",
        "Molecular Mass": "197.23",
        "Melting Point": "121-124 °C"
    }
}