{
    "cas_no": "19396-06-6",
    "key_name": "Polyoxin B",
    "cn_name": null,
    "alternate_name": "β-<span class=\"text-smallcaps\">D</smallcap>-Allofuranuronic acid, 5-[[2-amino-5-<em>O</em>-(aminocarbonyl)-2-deoxy-<smallcap>L</span>-xylonoyl]amino]-1,5-dideoxy-1-[3,4-dihydro-5-(hydroxymethyl)-2,4-dioxo-1(2<em>H</em>)-pyrimidinyl]-;Polyoxin B;Allofuranuronic acid, 5-(2-amino-2-deoxy-<span class=\"text-smallcaps\">L</smallcap>-xylonamido)-1,5-dideoxy-1-[3,4-dihydro-5-(hydroxymethyl)-2,4-dioxo-1(2<em>H</em>)-pyrimidinyl]-, monocarbamate (ester), β-<smallcap>D</span>-;5-[[2-Amino-5-<em>O</em>-(aminocarbonyl)-2-deoxy-<span class=\"text-smallcaps\">L</smallcap>-xylonoyl]amino]-1,5-dideoxy-1-[3,4-dihydro-5-(hydroxymethyl)-2,4-dioxo-1(2<em>H</em>)-pyrimidinyl]-β-<smallcap>D</span>-allofuranuronic acid;Milpan;Polar;Polar (antibiotic);Duoyangqing",
    "duplicated_cas_no": "11016-32-3;24695-50-9",
    "SMILES": "O[C@H]1[C@@H](O[C@]([C@H](NC([C@H]([C@@H]([C@H](COC(N)=O)O)O)N)=O)C(O)=O)([C@H]1O)[H])N2C=C(CO)C(=O)NC2=O",
    "meta_data": {
        "InChI": "InChI=1S/C17H25N5O13/c18-6(8(25)5(24)3-34-16(19)32)13(29)20-7(15(30)31)11-9(26)10(27)14(35-11)22-1-4(2-23)12(28)21-17(22)33/h1,5-11,14,23-27H,2-3,18H2,(H2,19,32)(H,20,29)(H,30,31)(H,21,28,33)/t5-,6-,7-,8+,9-,10+,11+,14+/m0/s1",
        "InChIKey": null,
        "Canonical SMILES": "O=C(O)C(NC(=O)C(N)C(O)C(O)COC(=O)N)C1OC(N2C=C(C(=O)NC2=O)CO)C(O)C1O",
        "Molecular Formula": "C<sub>17</sub>H<sub>25</sub>N<sub>5</sub>O<sub>13</sub>",
        "Molecular Mass": "507.41",
        "Melting Point": "150-153 °C (decomp)"
    }
}