{
    "cas_no": "14617-86-8",
    "key_name": "<em>p</em>-Nitrophenyl stearate",
    "cn_name": null,
    "alternate_name": "Octadecanoic acid, 4-nitrophenyl ester;Stearic acid, <em>p</em>-nitrophenyl ester;<em>p</em>-Nitrophenyl stearate;<em>p</em>-Nitrophenyl octadecanoate;4-Nitrophenyl stearate;(4-Nitrophenyl) octadecanoate",
    "duplicated_cas_no": "",
    "SMILES": "O(C(CCCCCCCCCCCCCCCCC)=O)C1=CC=C(N(=O)=O)C=C1",
    "meta_data": {
        "InChI": "InChI=1S/C24H39NO4/c1-2-3-4-5-6-7-8-9-10-11-12-13-14-15-16-17-24(26)29-23-20-18-22(19-21-23)25(27)28/h18-21H,2-17H2,1H3",
        "InChIKey": null,
        "Canonical SMILES": "O=C(OC1=CC=C(C=C1)N(=O)=O)CCCCCCCCCCCCCCCCC",
        "Molecular Formula": "C<sub>24</sub>H<sub>39</sub>NO<sub>4</sub>",
        "Molecular Mass": "405.57",
        "Melting Point": "64-65 °C"
    }
}