{
    "cas_no": "101-82-6",
    "key_name": "2-(Phenylmethyl)pyridine",
    "cn_name": "2-苄基吡啶;2-苯甲基吡啶;",
    "alternate_name": "Pyridine, 2-(phenylmethyl)-;Pyridine, 2-benzyl-;2-(Phenylmethyl)pyridine;2-Benzylpyridine;CDD 3529;NSC 241072;NSC 4033",
    "duplicated_cas_no": "",
    "SMILES": "C(C1=CC=CC=C1)C2=CC=CC=N2",
    "meta_data": {
        "InChI": "InChI=1S/C12H11N/c1-2-6-11(7-3-1)10-12-8-4-5-9-13-12/h1-9H,10H2",
        "InChIKey": null,
        "Canonical SMILES": "N=1C=CC=CC1CC=2C=CC=CC2",
        "Molecular Formula": "C<sub>12</sub>H<sub>11</sub>N",
        "Molecular Mass": "169.22",
        "Boiling Point": "277 °C",
        "Melting Point": "12.5 °C",
        "Density": "1.055 g/cm³ @ Temp: 20 °C"
    }
}