{
    "cas_no": "4360-12-7",
    "key_name": "Ajmaline",
    "cn_name": "阿义吗啉;",
    "alternate_name": "Ajmalan-17,21-diol, (17<em>R</em>,21α)-;Ajmaline;5<em>H</em>-6,10:11,12a-Dimethanoindolo[3,2-<em>b</em>]quinolizine, ajmalan-17,21-diol deriv.;(17<em>R</em>,21α)-Ajmalan-17,21-diol;Tachmalin;Rauwolfine;Gilurytmal;Cardiorythmine;Raugalline;Rauwolfin;Ajmalin;Ignazin;Merabitol;Rhytmaton;Rytmalin;Siddiqui;Takycor;(+)-Ajmaline;Ritmos;NSC 15627;MeSH ID: D000404",
    "duplicated_cas_no": "",
    "SMILES": "O[C@H]1C23[C@]([C@]4(N5[C@@](C2)(C1C(C4)[C@H](CC)[C@H]5O)[H])[H])(N(C)C=6C3=CC=CC6)[H]",
    "meta_data": {
        "InChI": "InChI=1S/C20H26N2O2/c1-3-10-11-8-14-17-20(12-6-4-5-7-13(12)21(17)2)9-15(16(11)18(20)23)22(14)19(10)24/h4-7,10-11,14-19,23-24H,3,8-9H2,1-2H3/t10-,11?,14-,15-,16?,17-,18+,19+,20?/m0/s1",
        "InChIKey": null,
        "Canonical SMILES": "OC1N2C3CC(C1CC)C4C(O)C5(C=6C=CC=CC6N(C)C35)CC24",
        "Molecular Formula": "C<sub>20</sub>H<sub>26</sub>N<sub>2</sub>O<sub>2</sub>",
        "Molecular Mass": "326.43",
        "Melting Point": "160 °C"
    }
}