{
    "cas_no": "34598-33-9",
    "key_name": "4,4,5,5,6,6,7,7,8,8,9,9,10,10,11,11,11-Heptadecafluoroundecanoic acid",
    "cn_name": null,
    "alternate_name": "Undecanoic acid, 4,4,5,5,6,6,7,7,8,8,9,9,10,10,11,11,11-heptadecafluoro-;4,4,5,5,6,6,7,7,8,8,9,9,10,10,11,11,11-Heptadecafluoroundecanoic acid;3-Perfluorooctylpropionic acid;Heptadecafluoroundecanoic acid;2<em>H</em>,2<em>H</em>,3<em>H</em>,3<em>H</em>-Perfluoroundecanoic acid",
    "duplicated_cas_no": "",
    "SMILES": "C(C(C(C(C(F)(F)F)(F)F)(F)F)(F)F)(C(C(C(CCC(O)=O)(F)F)(F)F)(F)F)(F)F",
    "meta_data": {
        "InChI": "InChI=1S/C11H5F17O2/c12-4(13,2-1-3(29)30)5(14,15)6(16,17)7(18,19)8(20,21)9(22,23)10(24,25)11(26,27)28/h1-2H2,(H,29,30)",
        "InChIKey": null,
        "Canonical SMILES": "O=C(O)CCC(F)(F)C(F)(F)C(F)(F)C(F)(F)C(F)(F)C(F)(F)C(F)(F)C(F)(F)F",
        "Molecular Formula": "C<sub>11</sub>H<sub>5</sub>F<sub>17</sub>O<sub>2</sub>",
        "Molecular Mass": "492.13",
        "Melting Point": "91-92 °C"
    }
}