{
    "cas_no": "623-24-5",
    "key_name": "1,4-Bis(bromomethyl)benzene",
    "cn_name": "1,4-二(溴甲基)苯;二溴对二甲苯;",
    "alternate_name": "Benzene, 1,4-bis(bromomethyl)-;<em>p</em>-Xylene, α,α′-dibromo-;1,4-Bis(bromomethyl)benzene;<em>p</em>-Xylylene dibromide;<em>p</em>-Di(bromomethyl)benzene;1,4-Di(bromomethyl)benzene;α,α′-Dibromo-<em>p</em>-xylene;<em>p</em>-Bis(bromomethyl)benzene;<em>p</em>-Xylylene bromide;α,α′-<em>p</em>-Xylene dibromide;α,α′-Dibromo-p-xylene;1,4-Xylylene dibromide;4-Bromomethylbenzyl bromide;NSC 6226",
    "duplicated_cas_no": "60558-95-4",
    "SMILES": "C(Br)C1=CC=C(CBr)C=C1",
    "meta_data": {
        "InChI": "InChI=1S/C8H8Br2/c9-5-7-1-2-8(6-10)4-3-7/h1-4H,5-6H2",
        "InChIKey": null,
        "Canonical SMILES": "BrCC1=CC=C(C=C1)CBr",
        "Molecular Formula": "C<sub>8</sub>H<sub>8</sub>Br<sub>2</sub>",
        "Molecular Mass": "263.96",
        "Boiling Point": "245 °C",
        "Melting Point": "144.5 °C"
    }
}