{
    "cas_no": "55179-31-2",
    "key_name": "Bitertanol",
    "cn_name": "联苯三唑醇;双苯三唑醇;1-联苯氧基-3,3-二甲基-1-(1H-1,2,4-三唑-1-基)-2-丁醇;",
    "alternate_name": "1<em>H</em>-1,2,4-Triazole-1-ethanol, β-([1,1′-biphenyl]-4-yloxy)-α-(1,1-dimethylethyl)-;β-([1,1′-Biphenyl]-4-yloxy)-α-(1,1-dimethylethyl)-1<em>H</em>-1,2,4-triazole-1-ethanol;KWG 0599;Baycor;Biloxazol;Bitertanol;Baycor 25WP;Baycor DC 300",
    "duplicated_cas_no": "1135441-01-8",
    "SMILES": "C(OC1=CC=C(C=C1)C2=CC=CC=C2)(C(C(C)(C)C)O)N3C=NC=N3",
    "meta_data": {
        "InChI": "InChI=1S/C20H23N3O2/c1-20(2,3)18(24)19(23-14-21-13-22-23)25-17-11-9-16(10-12-17)15-7-5-4-6-8-15/h4-14,18-19,24H,1-3H3",
        "InChIKey": null,
        "Canonical SMILES": "OC(C(OC=1C=CC(=CC1)C=2C=CC=CC2)N3N=CN=C3)C(C)(C)C",
        "Molecular Formula": "C<sub>20</sub>H<sub>23</sub>N<sub>3</sub>O<sub>2</sub>",
        "Molecular Mass": "337.42",
        "Melting Point": "127 °C"
    }
}