{
    "cas_no": "118-48-9",
    "key_name": "Isatoic anhydride",
    "cn_name": "靛红酸酐;",
    "alternate_name": "2<em>H</em>-3,1-Benzoxazine-2,4(1<em>H</em>)-dione;Isatoic anhydride;Isatoic acid anhydride;Benzoic acid, 2-(carboxyamino)-, cyclic anhydride;2,4-Dioxo-1,2-dihydro-4<em>H</em>-3,1-benzoxazine;1,2-Dihydro-3,1-benzoxazine-2,4-dione;1<em>H</em>-Benz[<em>d</em>][1,3]oxazine-2,4-dione;3,1-Benzoxazine-2,4(1<em>H</em>)-dione;NSC 104662;NSC 29555;2,4-Dihydro-1<em>H</em>-3,1-benzoxazine-2,4-dione;1<em>H</em>-3,1-Benzoxazine-2,4-dione;2-Hydroxy-4<em>H</em>-3,1-benzoxazin-4-one",
    "duplicated_cas_no": "32779-11-6",
    "SMILES": "O=C1C=2C(NC(=O)O1)=CC=CC2",
    "meta_data": {
        "InChI": "InChI=1S/C8H5NO3/c10-7-5-3-1-2-4-6(5)9-8(11)12-7/h1-4H,(H,9,11)",
        "InChIKey": null,
        "Canonical SMILES": "O=C1OC(=O)C=2C=CC=CC2N1",
        "Molecular Formula": "C<sub>8</sub>H<sub>5</sub>NO<sub>3</sub>",
        "Molecular Mass": "163.13",
        "Melting Point": "243 °C (decomp)"
    }
}