{
    "cas_no": "60218-41-9",
    "key_name": "2-Propyl-2-pentenoic acid",
    "cn_name": null,
    "alternate_name": "2-Pentenoic acid, 2-propyl-;2-Propyl-2-pentenoic acid;2-Propylpenten-2-oic acid;2-Propyl-2-pentenoate",
    "duplicated_cas_no": "",
    "SMILES": "C(CCC)(=CCC)C(O)=O",
    "meta_data": {
        "InChI": "InChI=1S/C8H14O2/c1-3-5-7(6-4-2)8(9)10/h5H,3-4,6H2,1-2H3,(H,9,10)",
        "InChIKey": null,
        "Canonical SMILES": "O=C(O)C(=CCC)CCC",
        "Molecular Formula": "C<sub>8</sub>H<sub>14</sub>O<sub>2</sub>",
        "Molecular Mass": "142.20",
        "Melting Point": "36 °C"
    }
}