{
    "cas_no": "615-05-4",
    "key_name": "2,4-Diaminoanisole",
    "cn_name": "2,4-二氨基苯甲醚; 4-甲氧基间苯二胺;",
    "alternate_name": "1,3-Benzenediamine, 4-methoxy-;<em>m</em>-Phenylenediamine, 4-methoxy-;4-Methoxy-1,3-benzenediamine;C.I. 76050;C.I. Oxidation Base 12;2,4-Diaminoanisole;Furro L;Pelagol L;Pelagol DA;Pelagol Grey L;4-Methoxy-<em>m</em>-phenylenediamine;1,3-Diamino-4-methoxybenzene;<em>p</em>-Methoxy-<em>m</em>-phenylenediamine;3-Amino-4-methoxyaniline;2,4-Diaminophenyl methyl ether;4-Methoxy-1,3-phenylenediamine;2,4-Diamino-1-methoxybenzene;1-Methoxy-2,4-diaminobenzene",
    "duplicated_cas_no": "",
    "SMILES": "O(C)C1=C(N)C=C(N)C=C1",
    "meta_data": {
        "InChI": "InChI=1S/C7H10N2O/c1-10-7-3-2-5(8)4-6(7)9/h2-4H,8-9H2,1H3",
        "InChIKey": null,
        "Canonical SMILES": "O(C1=CC=C(N)C=C1N)C",
        "Molecular Formula": "C<sub>7</sub>H<sub>10</sub>N<sub>2</sub>O",
        "Molecular Mass": "138.17",
        "Boiling Point": "221 °C",
        "Melting Point": "67-68 °C"
    }
}