{
    "cas_no": "17176-77-1",
    "key_name": "Dibenzyl phosphite",
    "cn_name": null,
    "alternate_name": "Phosphonic acid, bis(phenylmethyl) ester;Phosphonic acid, dibenzyl ester;Benzyl phosphonate ((C<sub>7</sub>H<sub>7</sub>O)<sub>2</sub>HPO);Dibenzyl hydrogen phosphite;Dibenzyl phosphite;Dibenzyl phosphonate",
    "duplicated_cas_no": "1195286-71-5",
    "SMILES": "C(OP(OCC1=CC=CC=C1)=O)C2=CC=CC=C2",
    "meta_data": {
        "InChI": "InChI=1S/C14H15O3P/c15-18(16-11-13-7-3-1-4-8-13)17-12-14-9-5-2-6-10-14/h1-10,18H,11-12H2",
        "InChIKey": null,
        "Canonical SMILES": "O=P(OCC=1C=CC=CC1)OCC=2C=CC=CC2",
        "Molecular Formula": "C<sub>14</sub>H<sub>15</sub>O<sub>3</sub>P",
        "Molecular Mass": "262.24",
        "Boiling Point": "162 °C",
        "Melting Point": "-5 °C"
    }
}