{
    "cas_no": "17875-55-7",
    "key_name": "1,1,5,5-Tetramethyl-3,3-diphenyltrisiloxane",
    "cn_name": "四甲基二苯基二氢化三硅氧烷;",
    "alternate_name": "Trisiloxane, 1,1,5,5-tetramethyl-3,3-diphenyl-;1,1,5,5-Tetramethyl-3,3-diphenyltrisiloxane;Bis(dimethylsiloxy)diphenylsilane;3,3-Diphenyl-1,1,5,5-tetramethyltrisiloxane;3,3-Diphenyltetramethyltrisiloxane;PF 8801",
    "duplicated_cas_no": "",
    "SMILES": "[Si](O[SiH](C)C)(O[SiH](C)C)(C1=CC=CC=C1)C2=CC=CC=C2",
    "meta_data": {
        "InChI": "InChI=1S/C16H24O2Si3/c1-19(2)17-21(18-20(3)4,15-11-7-5-8-12-15)16-13-9-6-10-14-16/h5-14,19-20H,1-4H3",
        "InChIKey": null,
        "Canonical SMILES": "O([SiH](C)C)[Si](O[SiH](C)C)(C=1C=CC=CC1)C=2C=CC=CC2",
        "Molecular Formula": "C<sub>16</sub>H<sub>24</sub>O<sub>2</sub>Si<sub>3</sub>",
        "Molecular Mass": "332.62",
        "Boiling Point": "137 °C @ Press: 2.8 Torr",
        "Density": "0.9936 g/cm³ @ Temp: 20 °C"
    }
}