{
    "cas_no": "59-88-1",
    "key_name": "Phenylhydrazine hydrochloride",
    "cn_name": "盐酸苯肼;苯肼盐酸盐;",
    "alternate_name": "Hydrazine, phenyl-, hydrochloride (1:1);Hydrazine, phenyl-, monohydrochloride;Phenylhydrazine monohydrochloride;Phenylhydrazinium chloride;Phenylhydrazine hydrochloride;<em>N</em>-Phenylhydrazine hydrochloride;2-Phenylhydrazinium chloride",
    "duplicated_cas_no": "",
    "SMILES": "N(N)C1=CC=CC=C1.Cl",
    "meta_data": {
        "InChI": "InChI=1S/C6H8N2.ClH/c7-8-6-4-2-1-3-5-6;/h1-5,8H,7H2;1H",
        "InChIKey": null,
        "Canonical SMILES": "Cl.NNC=1C=CC=CC1",
        "Molecular Formula": "C<sub>6</sub>H<sub>8</sub>N<sub>2</sub>.ClH",
        "Molecular Mass": "",
        "Melting Point": "245 °C (decomp)"
    }
}