{
    "cas_no": "18230-61-0",
    "key_name": "Diisopropyldimethoxysilane",
    "cn_name": "二异丙基二甲氧基硅烷;",
    "alternate_name": "Silane, dimethoxybis(1-methylethyl)-;Silane, diisopropyldimethoxy-;Dimethoxybis(1-methylethyl)silane;Diisopropyldimethoxysilane;Z 6258;Dimethoxydiisopropylsilane;Silicon diisopropyl dimethoxide",
    "duplicated_cas_no": "",
    "SMILES": "[Si](C(C)C)(C(C)C)(OC)OC",
    "meta_data": {
        "InChI": "InChI=1S/C8H20O2Si/c1-7(2)11(9-5,10-6)8(3)4/h7-8H,1-6H3",
        "InChIKey": null,
        "Canonical SMILES": "O(C)[Si](OC)(C(C)C)C(C)C",
        "Molecular Formula": "C<sub>8</sub>H<sub>20</sub>O<sub>2</sub>Si",
        "Molecular Mass": "176.33",
        "Boiling Point": "85-87 °C @ Press: 50 Torr",
        "Density": "0.875 g/cm³"
    }
}