{
    "cas_no": "78266-06-5",
    "key_name": "Mebrofenin",
    "cn_name": "美溴非林;(3-溴-2,4,6-三甲基苯氨羰基)甲基亚氨基二乙酸;",
    "alternate_name": "Glycine, <em>N</em>-[2-[(3-bromo-2,4,6-trimethylphenyl)amino]-2-oxoethyl]-<em>N</em>-(carboxymethyl)-;<em>N</em>-[2-[(3-Bromo-2,4,6-trimethylphenyl)amino]-2-oxoethyl]-<em>N</em>-(carboxymethyl)glycine;Mebrofenin;SQ 26962;2: PN: US20040033243 PAGE: 23 claimed protein;2,2′-((2-((3-Bromo-2,4,6-trimethylphenyl)amino)-2-oxoethyl)azanediyl)diacetic acid;(3-Bromo-2,4,6-trimethylphenylcarbamoyl)methyliminodiacetic acid",
    "duplicated_cas_no": "",
    "SMILES": "N(C(CN(CC(O)=O)CC(O)=O)=O)C1=C(C)C(Br)=C(C)C=C1C",
    "meta_data": {
        "InChI": "InChI=1S/C15H19BrN2O5/c1-8-4-9(2)15(10(3)14(8)16)17-11(19)5-18(6-12(20)21)7-13(22)23/h4H,5-7H2,1-3H3,(H,17,19)(H,20,21)(H,22,23)",
        "InChIKey": null,
        "Canonical SMILES": "O=C(O)CN(CC(=O)O)CC(=O)NC=1C(=CC(=C(Br)C1C)C)C",
        "Molecular Formula": "C<sub>15</sub>H<sub>19</sub>BrN<sub>2</sub>O<sub>5</sub>",
        "Molecular Mass": "387.23",
        "Melting Point": "198-200 °C"
    }
}