{
    "cas_no": "135-65-9",
    "key_name": "3-Hydroxy-<em>N</em>-(3-nitrophenyl)-2-naphthalenecarboxamide",
    "cn_name": "冰染偶合组分17;色酚AS-BS;3-羟基-N-(3-硝基苯基)-2-萘甲酰胺;",
    "alternate_name": "2-Naphthalenecarboxamide, 3-hydroxy-<em>N</em>-(3-nitrophenyl)-;2-Naphthanilide, 3-hydroxy-3′-nitro-;3-Hydroxy-<em>N</em>-(3-nitrophenyl)-2-naphthalenecarboxamide;C.I. 37515;Acco Naphthol AS-BS;Acna Naphthol M;Amanil Naphthol AS-BS;Amarthol AS-BS;Anthonaphthol AS-BS;Azoground BS;Azoic Coupling Component 17;Azonaphtol MNA;Azotol MNA;Brenthol MN;Celcot RM;Cibanaphthol RM;C.I. Azoic Coupling Component 17;Daito Grounder BS;Diathol BS;Dragonthol BS;Hiltonaphthol AS-BS;3-Hydroxy-3′-nitro-2-naphthanilide;Irganaphthol RM;Kambothol ASBS;Mitsui Naphthozol BS;Naftolo MBS;Naphtanilide BS;Naphtazol B;Naphthanil BS;Naphthoide BS;Naphthol AS-BS Dispersible;Naphthol <em>AS</em>-BS Supra;Naphtoelan BS;Naphtol AS-BS;Naphtol AS-BS Supra;Naptanilide BS Supra;Solunaptol MNL;Tulathol AS-BS;Ultrazol IV-BS;Naphthol AS-BS;2-Hydroxy-3′-nitro-3-naphthanilide;2-Hydroxy-3-naphthoic acid 3-nitroanilide;2-Hydroxy-<em>N</em>-(3-nitrophenyl)-3-naphthamide;2-Hydroxy-3-naphthoic acid <em>m</em>-nitroanilide;NSC 37168;Conazoic AL;Scarlet Base VD;Anarthol AS-BS;Hebeithol AS-BS;Kiwa Grounder BS;Dycosthol AS-BS;Naftol AS-BS;Napthol ASBS;C.I. Azo Coupling Comp. 17;<em>N</em>-(3-Nitrophenyl)-3-hydroxynaphthalene-2-carboxamide;3-Hydroxy-<em>N</em>-(3-nitrophenyl)-2-naphthamide",
    "duplicated_cas_no": "",
    "SMILES": "C(NC1=CC(N(=O)=O)=CC=C1)(=O)C2=CC3=C(C=C2O)C=CC=C3",
    "meta_data": {
        "InChI": "InChI=1S/C17H12N2O4/c20-16-9-12-5-2-1-4-11(12)8-15(16)17(21)18-13-6-3-7-14(10-13)19(22)23/h1-10,20H,(H,18,21)",
        "InChIKey": null,
        "Canonical SMILES": "O=C(NC1=CC=CC(=C1)N(=O)=O)C2=CC=3C=CC=CC3C=C2O",
        "Molecular Formula": "C<sub>17</sub>H<sub>12</sub>N<sub>2</sub>O<sub>4</sub>",
        "Molecular Mass": "308.29",
        "Melting Point": "242-244 °C"
    }
}