{
    "cas_no": "1585-68-8",
    "key_name": "Catalpalactone",
    "cn_name": null,
    "alternate_name": "1(3<em>H</em>)-Isobenzofuranone, 3-(5,6-dihydro-6,6-dimethyl-2-oxo-2<em>H</em>-pyran-3-yl)-;Phthalide, 3-(5,6-dihydro-6,6-dimethyl-2-oxo-2<em>H</em>-pyran-3-yl)-;1-Phthalanacetic acid, α-(3-hydroxy-3-methylbutylidene)-3-oxo-, δ-lactone;3-(5,6-Dihydro-6,6-dimethyl-2-oxo-2<em>H</em>-pyran-3-yl)-1(3<em>H</em>)-isobenzofuranone;Catalpalactone;(±)-Catalpalactone",
    "duplicated_cas_no": "133591-03-4",
    "SMILES": "O=C1C(C2C=3C(C(=O)O2)=CC=CC3)=CCC(C)(C)O1",
    "meta_data": {
        "InChI": "InChI=1S/C15H14O4/c1-15(2)8-7-11(14(17)19-15)12-9-5-3-4-6-10(9)13(16)18-12/h3-7,12H,8H2,1-2H3",
        "InChIKey": null,
        "Canonical SMILES": "O=C1OC(C=2C=CC=CC12)C3=CCC(OC3=O)(C)C",
        "Molecular Formula": "C<sub>15</sub>H<sub>14</sub>O<sub>4</sub>",
        "Molecular Mass": "258.27",
        "Melting Point": "110-111 °C"
    }
}