{
    "cas_no": "525-52-0",
    "key_name": "1,2,3-Benzenetriol, 1,2,3-triacetate",
    "cn_name": "1,2,3-三乙酰氧基苯;",
    "alternate_name": "1,2,3-Benzenetriol, 1,2,3-triacetate;Pyrogallol, triacetate;1,2,3-Benzenetriol, triacetate;Acetpyrogall;Lenigallol;Pyracetol;Triacetylpyrogallol;1,2,3-Triacetoxybenzene;NSC 24068",
    "duplicated_cas_no": "",
    "SMILES": "O(C(C)=O)C1=C(OC(C)=O)C=CC=C1OC(C)=O",
    "meta_data": {
        "InChI": "InChI=1S/C12H12O6/c1-7(13)16-10-5-4-6-11(17-8(2)14)12(10)18-9(3)15/h4-6H,1-3H3",
        "InChIKey": null,
        "Canonical SMILES": "O=C(OC1=CC=CC(OC(=O)C)=C1OC(=O)C)C",
        "Molecular Formula": "C<sub>12</sub>H<sub>12</sub>O<sub>6</sub>",
        "Molecular Mass": "252.22",
        "Melting Point": "165 °C"
    }
}