{
    "cas_no": "329976-74-1",
    "key_name": "Borate(1-), trifluoro(2-phenylethyl)-, potassium (1:1), (<em>T</em>-4)-",
    "cn_name": null,
    "alternate_name": "Borate(1-), trifluoro(2-phenylethyl)-, potassium (1:1), (<em>T</em>-4)-;Borate(1-), trifluoro(2-phenylethyl)-, potassium, (<em>T</em>-4)-;Potassium 2-phenethyltrifluoroborate;Potassium (2-phenylethyl)trifluoroborate;Potassium phenethyltrifluoroborate",
    "duplicated_cas_no": "",
    "SMILES": "C([CH2-][B+3]([F-])([F-])[F-])C1=CC=CC=C1.[K+]",
    "meta_data": {
        "InChI": "InChI=1S/C8H9BF3.K/c10-9(11,12)7-6-8-4-2-1-3-5-8;/h1-5H,6-7H2;/q-1;+1",
        "InChIKey": null,
        "Canonical SMILES": "[K+].[F-][B+3]([F-])([F-])[CH2-]CC=1C=CC=CC1",
        "Molecular Formula": "C<sub>8</sub>H<sub>9</sub>BF<sub>3</sub>.K",
        "Molecular Mass": "",
        "Melting Point": "305-312 °C"
    }
}