{
    "cas_no": "4792-15-8",
    "key_name": "Pentaethylene glycol",
    "cn_name": "戊乙二醇;3,6,9,12-四氧杂十四烷基-1,14-二醇;",
    "alternate_name": "3,6,9,12-Tetraoxatetradecane-1,14-diol;Pentaethylene glycol;1,2-Bis[2-(2-hydroxyethoxy)ethoxy]ethane;2-[2-[2-[2-(2-Hydroxyethoxy)ethoxy]ethoxy]ethoxy]ethanol",
    "duplicated_cas_no": "942939-01-7;1186024-62-3",
    "SMILES": "C(COCCOCCO)OCCOCCO",
    "meta_data": {
        "InChI": "InChI=1S/C10H22O6/c11-1-3-13-5-7-15-9-10-16-8-6-14-4-2-12/h11-12H,1-10H2",
        "InChIKey": null,
        "Canonical SMILES": "OCCOCCOCCOCCOCCO",
        "Molecular Formula": "C<sub>10</sub>H<sub>22</sub>O<sub>6</sub>",
        "Molecular Mass": "238.28",
        "Boiling Point": "174-176 °C @ Press: 0.14 Torr",
        "Melting Point": "187 °C",
        "Density": "1.1255 g/cm³ (liquid) @ Temp: 20.010 °C; Press: 750 Torr"
    }
}