{
    "cas_no": "3785-24-8",
    "key_name": "Nepodin",
    "cn_name": null,
    "alternate_name": "Ethanone, 1-(1,8-dihydroxy-3-methyl-2-naphthalenyl)-;2′-Acetonaphthone, 1′,8′-dihydroxy-3′-methyl-;1-(1,8-Dihydroxy-3-methyl-2-naphthalenyl)ethanone;Musizin;Nepodin;Musizine;Dianellidin;2-Acetyl-1,8-dihydroxy-3-methylnaphthalene;NSC 365795",
    "duplicated_cas_no": "",
    "SMILES": "OC=1C2=C(C=C(C)C1C(C)=O)C=CC=C2O",
    "meta_data": {
        "InChI": "InChI=1S/C13H12O3/c1-7-6-9-4-3-5-10(15)12(9)13(16)11(7)8(2)14/h3-6,15-16H,1-2H3",
        "InChIKey": null,
        "Canonical SMILES": "O=C(C1=C(O)C=2C(O)=CC=CC2C=C1C)C",
        "Molecular Formula": "C<sub>13</sub>H<sub>12</sub>O<sub>3</sub>",
        "Molecular Mass": "216.23",
        "Melting Point": "158 °C"
    }
}