{
    "cas_no": "2398-37-0",
    "key_name": "3-Bromoanisole",
    "cn_name": "间溴苯甲醚;",
    "alternate_name": "Benzene, 1-bromo-3-methoxy-;Anisole, <em>m</em>-bromo-;1-Bromo-3-methoxybenzene;<em>m</em>-Bromophenyl methyl ether;3-Bromoanisole;3-Methoxy-1-bromobenzene;<em>m</em>-Bromoanisole;3-Methoxybromobenzene;<em>m</em>-Bromomethoxybenzene;<em>m</em>-Methoxybromobenzene;<em>m</em>-Anisyl bromide;3-Methoxyphenyl bromide;<em>m</em>-Methoxyphenyl bromide;m-Bromoanisole;NSC 82293;3-Bromobenzene methyl ether",
    "duplicated_cas_no": "",
    "SMILES": "O(C)C1=CC(Br)=CC=C1",
    "meta_data": {
        "InChI": "InChI=1S/C7H7BrO/c1-9-7-4-2-3-6(8)5-7/h2-5H,1H3",
        "InChIKey": null,
        "Canonical SMILES": "BrC1=CC=CC(OC)=C1",
        "Molecular Formula": "C<sub>7</sub>H<sub>7</sub>BrO",
        "Molecular Mass": "187.03",
        "Boiling Point": "211 °C",
        "Melting Point": "106.7 °C"
    }
}