{
    "cas_no": "3568-90-9",
    "key_name": "Deoxylapachol",
    "cn_name": null,
    "alternate_name": "1,4-Naphthalenedione, 2-(3-methyl-2-buten-1-yl)-;1,4-Naphthoquinone, 2-(3-methyl-2-butenyl)-;1,4-Naphthalenedione, 2-(3-methyl-2-butenyl)-;2-(3-Methyl-2-buten-1-yl)-1,4-naphthalenedione;Deoxylapachol;Desoxylapachol;2-(3-Methyl-2-butenyl)-1,4-naphthoquinone;NSC 123507",
    "duplicated_cas_no": "",
    "SMILES": "O=C1C=2C(C(=O)C=C1CC=C(C)C)=CC=CC2",
    "meta_data": {
        "InChI": "InChI=1S/C15H14O2/c1-10(2)7-8-11-9-14(16)12-5-3-4-6-13(12)15(11)17/h3-7,9H,8H2,1-2H3",
        "InChIKey": null,
        "Canonical SMILES": "O=C1C=C(C(=O)C=2C=CC=CC12)CC=C(C)C",
        "Molecular Formula": "C<sub>15</sub>H<sub>14</sub>O<sub>2</sub>",
        "Molecular Mass": "226.27",
        "Melting Point": "56-58 °C"
    }
}