{
    "cas_no": "5988-19-2",
    "key_name": "<span class=\"text-smallcaps\">L</span>-Dihydroorotic acid",
    "cn_name": "L-4,5-二氢乳清酸;(S)-2,6-二氧代六氢-4-嘧啶羧酸;",
    "alternate_name": "4-Pyrimidinecarboxylic acid, hexahydro-2,6-dioxo-, (4<em>S</em>)-;Hydroorotic acid, <span class=\"text-smallcaps\">L</span>-;4-Pyrimidinecarboxylic acid, hexahydro-2,6-dioxo-, (<em>S</em>)-;(4<em>S</em>)-Hexahydro-2,6-dioxo-4-pyrimidinecarboxylic acid;<span class=\"text-smallcaps\">L</span>-Dihydroorotate;<span class=\"text-smallcaps\">L</span>-Dihydroorotic acid;<span class=\"text-smallcaps\">L</span>-5,6-Dihydroorotic acid;(4S)-2,6-Dioxo-1,3-diazinane-4-carboxylic acid;(<em>S</em>)-2,6-Dioxohexahydropyrimidine-4-carboxylic acid",
    "duplicated_cas_no": "",
    "SMILES": "C(O)(=O)[C@@H]1CC(=O)NC(=O)N1",
    "meta_data": {
        "InChI": "InChI=1S/C5H6N2O4/c8-3-1-2(4(9)10)6-5(11)7-3/h2H,1H2,(H,9,10)(H2,6,7,8,11)/t2-/m0/s1",
        "InChIKey": null,
        "Canonical SMILES": "O=C1NC(=O)CC(N1)C(=O)O",
        "Molecular Formula": "C<sub>5</sub>H<sub>6</sub>N<sub>2</sub>O<sub>4</sub>",
        "Molecular Mass": "158.11",
        "Melting Point": "267-268 °C (decomp)"
    }
}