{
    "cas_no": "581-96-4",
    "key_name": "2-Naphthaleneacetic acid",
    "cn_name": "2-萘乙酸;beta-萘乙酸;",
    "alternate_name": "2-Naphthaleneacetic acid;β-Naphthaleneacetic acid;2-Naphthylacetic acid;Betoxan;β-Naphthaleneacetate;β-Naphthylacetic acid;2-(2-Naphthyl)acetic acid;2-NAA;Naphthalen-2-ylacetic acid;NSC 301;2-Naphthalen-2-ylacetic acid",
    "duplicated_cas_no": "",
    "SMILES": "C(C(O)=O)C1=CC2=C(C=C1)C=CC=C2",
    "meta_data": {
        "InChI": "InChI=1S/C12H10O2/c13-12(14)8-9-5-6-10-3-1-2-4-11(10)7-9/h1-7H,8H2,(H,13,14)",
        "InChIKey": null,
        "Canonical SMILES": "O=C(O)CC=1C=CC=2C=CC=CC2C1",
        "Molecular Formula": "C<sub>12</sub>H<sub>10</sub>O<sub>2</sub>",
        "Molecular Mass": "186.21",
        "Melting Point": "142 °C"
    }
}