{
    "cas_no": "3434-88-6",
    "key_name": "Estradiol, diacetate",
    "cn_name": "雌二醇二乙酸酯;雌甾-1,3,5(10)-三烯-3,17b-二醇二乙酸酯;",
    "alternate_name": "Estra-1,3,5(10)-triene-3,17-diol (17β)-, 3,17-diacetate;Estradiol, diacetate;Estra-1,3,5(10)-triene-3,17-diol (17β)-, diacetate;β-Estradiol diacetate;Estradiol-3,17β-diacetate;3,17β-Diacetoxyestra-1,3,5(10)-triene;Estradiol-3,17-diacetate;17β-Estradiol diacetate;Estra-1,3,5(10)-triene-3,17β-diol diacetate;NSC 106559",
    "duplicated_cas_no": "69557-96-6",
    "SMILES": "C[C@@]12[C@]([C@]3([C@@](C=4C(CC3)=CC(OC(C)=O)=CC4)(CC1)[H])[H])(CC[C@@H]2OC(C)=O)[H]",
    "meta_data": {
        "InChI": "InChI=1S/C22H28O4/c1-13(23)25-16-5-7-17-15(12-16)4-6-19-18(17)10-11-22(3)20(19)8-9-21(22)26-14(2)24/h5,7,12,18-21H,4,6,8-11H2,1-3H3/t18-,19-,20+,21+,22+/m1/s1",
        "InChIKey": null,
        "Canonical SMILES": "O=C(OC1=CC=C2C(=C1)CCC3C2CCC4(C)C(OC(=O)C)CCC34)C",
        "Molecular Formula": "C<sub>22</sub>H<sub>28</sub>O<sub>4</sub>",
        "Molecular Mass": "356.46",
        "Melting Point": "127-129 °C"
    }
}