{
    "cas_no": "19687-73-1",
    "key_name": "3-[[(2-Nitrophenyl)methylene]amino]-2-oxazolidinone",
    "cn_name": "2-NP-AOZ;",
    "alternate_name": "2-Oxazolidinone, 3-[[(2-nitrophenyl)methylene]amino]-;2-Oxazolidinone, 3-[(<em>o</em>-nitrobenzylidene)amino]-;3-[[(2-Nitrophenyl)methylene]amino]-2-oxazolidinone;NPAOZ",
    "duplicated_cas_no": "126268-06-2",
    "SMILES": "C(=NN1C(=O)OCC1)C2=C(N(=O)=O)C=CC=C2",
    "meta_data": {
        "InChI": "InChI=1S/C10H9N3O4/c14-10-12(5-6-17-10)11-7-8-3-1-2-4-9(8)13(15)16/h1-4,7H,5-6H2",
        "InChIKey": null,
        "Canonical SMILES": "O=C1OCCN1N=CC=2C=CC=CC2N(=O)=O",
        "Molecular Formula": "C<sub>10</sub>H<sub>9</sub>N<sub>3</sub>O<sub>4</sub>",
        "Molecular Mass": "235.20",
        "Melting Point": "175-176 °C"
    }
}