{
    "cas_no": "2517-43-3",
    "key_name": "3-Methoxybutanol",
    "cn_name": "3-甲氧基丁醇;",
    "alternate_name": "1-Butanol, 3-methoxy-;3-Methoxy-1-butanol;3-Methoxybutanol;NSC 65580;1,3-Butylene glycol 3-monomethyl ether;3-Methoxybutyl alcohol",
    "duplicated_cas_no": "89378-53-0",
    "SMILES": "C(CCO)(OC)C",
    "meta_data": {
        "InChI": "InChI=1S/C5H12O2/c1-5(7-2)3-4-6/h5-6H,3-4H2,1-2H3",
        "InChIKey": null,
        "Canonical SMILES": "OCCC(OC)C",
        "Molecular Formula": "C<sub>5</sub>H<sub>12</sub>O<sub>2</sub>",
        "Molecular Mass": "104.15",
        "Boiling Point": "160 °C",
        "Melting Point": "-85 °C",
        "Density": "0.92 g/cm³"
    }
}