{
    "cas_no": "1119-86-4",
    "key_name": "1,2-Decanediol",
    "cn_name": "1,2-癸二醇;",
    "alternate_name": "1,2-Decanediol;1,2-Dihydroxydecane;1,2-Decylene glycol;<em>n</em>-Decane-1,2-diol;NSC 28662;SymClariol;decalene glycol;Decylene glycol",
    "duplicated_cas_no": "81096-87-9",
    "SMILES": "C(CCC(CO)O)CCCCC",
    "meta_data": {
        "InChI": "InChI=1S/C10H22O2/c1-2-3-4-5-6-7-8-10(12)9-11/h10-12H,2-9H2,1H3",
        "InChIKey": null,
        "Canonical SMILES": "OCC(O)CCCCCCCC",
        "Molecular Formula": "C<sub>10</sub>H<sub>22</sub>O<sub>2</sub>",
        "Molecular Mass": "174.28",
        "Boiling Point": "93-96 °C @ Press: 0.05 Torr",
        "Melting Point": "48-49 °C"
    }
}