{
    "cas_no": "631-36-7",
    "key_name": "Tetraethylsilane",
    "cn_name": "四乙基硅烷;",
    "alternate_name": "Silane, tetraethyl-;Tetraethylsilane;Tetraethylsilicon",
    "duplicated_cas_no": "",
    "SMILES": "[Si](CC)(CC)(CC)CC",
    "meta_data": {
        "InChI": "InChI=1S/C8H20Si/c1-5-9(6-2,7-3)8-4/h5-8H2,1-4H3",
        "InChIKey": null,
        "Canonical SMILES": "CC[Si](CC)(CC)CC",
        "Molecular Formula": "C<sub>8</sub>H<sub>20</sub>Si",
        "Molecular Mass": "144.33",
        "Boiling Point": "154.7 °C",
        "Melting Point": "-82 °C",
        "Density": "0.762 g/cm³"
    }
}