{
    "cas_no": "646-23-1",
    "key_name": "Alyssin",
    "cn_name": "1-异硫氰基-5-(甲基亚磺酰基)戊烷;1-异硫氰基-5-(甲基亚磺酰基)戊烷;",
    "alternate_name": "Pentane, 1-isothiocyanato-5-(methylsulfinyl)-;Isothiocyanic acid, 5-(methylsulfinyl)pentyl ester;1-Isothiocyanato-5-(methylsulfinyl)pentane;5-Methylsulfinylpentylisothiocyanate;Alyssin",
    "duplicated_cas_no": "",
    "SMILES": "C(CCN=C=S)CCS(C)=O",
    "meta_data": {
        "InChI": "InChI=1S/C7H13NOS2/c1-11(9)6-4-2-3-5-8-7-10/h2-6H2,1H3",
        "InChIKey": null,
        "Canonical SMILES": "O=S(C)CCCCCN=C=S",
        "Molecular Formula": "C<sub>7</sub>H<sub>13</sub>NOS<sub>2</sub>",
        "Molecular Mass": "191.31",
        "Boiling Point": "130-135 °C @ Press: 0.02 Torr"
    }
}