{
    "cas_no": "10338-51-9",
    "key_name": "Salidroside",
    "cn_name": "红景天苷;红景天甙;",
    "alternate_name": "β-<span class=\"text-smallcaps\">D</span>-Glucopyranoside, 2-(4-hydroxyphenyl)ethyl;Salidroside;Glucopyranoside, <em>p</em>-hydroxyphenethyl;2-(4-Hydroxyphenyl)ethyl β-<span class=\"text-smallcaps\">D</span>-glucopyranoside;Rhodioloside;Rhodosin;Tyrosol α-(β-<span class=\"text-smallcaps\">D</span>-glucopyranoside);4-Hydroxyphenyl-2-ethyl-β-<span class=\"text-smallcaps\">D</span>-glucopyranoside;Sallidroside;(2<em>R</em>,3<em>S</em>,4<em>S</em>,5<em>R</em>,6<em>R</em>)-2-(Hydroxymethyl)-6-[2-(4-hydroxyphenyl)ethoxy] oxane-3,4,5-triol",
    "duplicated_cas_no": "12684-27-4;1384856-15-8",
    "SMILES": "O(CCC1=CC=C(O)C=C1)[C@@H]2O[C@H](CO)[C@@H](O)[C@H](O)[C@H]2O",
    "meta_data": {
        "InChI": "InChI=1S/C14H20O7/c15-7-10-11(17)12(18)13(19)14(21-10)20-6-5-8-1-3-9(16)4-2-8/h1-4,10-19H,5-7H2/t10-,11-,12+,13-,14-/m1/s1",
        "InChIKey": null,
        "Canonical SMILES": "OC1=CC=C(C=C1)CCOC2OC(CO)C(O)C(O)C2O",
        "Molecular Formula": "C<sub>14</sub>H<sub>20</sub>O<sub>7</sub>",
        "Molecular Mass": "300.30",
        "Melting Point": "159-160 °C"
    }
}