{
    "cas_no": "138112-76-2",
    "key_name": "Agomelatine",
    "cn_name": "阿戈美拉汀;",
    "alternate_name": "Acetamide, <em>N</em>-[2-(7-methoxy-1-naphthalenyl)ethyl]-;<em>N</em>-[2-(7-Methoxy-1-naphthalenyl)ethyl]acetamide;S 20098;<em>N</em>-[2-(7-Methoxy-1-naphthyl)ethyl]acetamide;Agomelatine;Valdoxan;<em>N</em>-[2-(7-Methoxynaphthalen-1-yl)ethyl]acetamide;AGO 178;Thymanax",
    "duplicated_cas_no": "",
    "SMILES": "C(CNC(C)=O)C=1C2=C(C=CC(OC)=C2)C=CC1",
    "meta_data": {
        "InChI": "InChI=1S/C15H17NO2/c1-11(17)16-9-8-13-5-3-4-12-6-7-14(18-2)10-15(12)13/h3-7,10H,8-9H2,1-2H3,(H,16,17)",
        "InChIKey": null,
        "Canonical SMILES": "O=C(NCCC1=CC=CC2=CC=C(OC)C=C21)C",
        "Molecular Formula": "C<sub>15</sub>H<sub>17</sub>NO<sub>2</sub>",
        "Molecular Mass": "243.30",
        "Melting Point": "109-110 °C"
    }
}