{
    "cas_no": "1476-11-5",
    "key_name": "<em>cis</em>-1,4-Dichloro-2-butene",
    "cn_name": "顺式-1,4-二氯-2-丁烯;",
    "alternate_name": "2-Butene, 1,4-dichloro-, (2<em>Z</em>)-;2-Butene, 1,4-dichloro-, (<em>Z</em>)-;(2<em>Z</em>)-1,4-Dichloro-2-butene;<em>cis</em>-1,4-Dichloro-2-butene;1,4-Dichloro-<em>cis</em>-2-butene;(<em>Z</em>)-1,4-Dichloro-2-butene;<em>cis</em>-1,2-Bis(chloromethyl)ethene;(<em>Z</em>)-1,4-Dichlorobutene;(2Z)-1,4-Dichlorobut-2-ene",
    "duplicated_cas_no": "",
    "SMILES": "C(=C\\CCl)\\CCl",
    "meta_data": {
        "InChI": "InChI=1S/C4H6Cl2/c5-3-1-2-4-6/h1-2H,3-4H2/b2-1-",
        "InChIKey": null,
        "Canonical SMILES": "ClCC=CCCl",
        "Molecular Formula": "C<sub>4</sub>H<sub>6</sub>Cl<sub>2</sub>",
        "Molecular Mass": "125.00",
        "Boiling Point": "152.5 °C",
        "Melting Point": "-48 °C",
        "Density": "1.188 g/cm³ @ Temp: 25 °C"
    }
}