{
    "cas_no": "20120-24-5",
    "key_name": "Ethyl 3-(4-morpholino)propionate",
    "cn_name": "3-(4-吗啉代)丙酸乙酯;",
    "alternate_name": "4-Morpholinepropanoic acid, ethyl ester;4-Morpholinepropionic acid, ethyl ester;NSC 36187;Ethyl 3-morpholinopropanoate;Ethyl 3-(4-morpholino)propionate;Ethyl 3-(morpholin-4-yl)propanoate;4-[2-(Ethoxycarbonyl)ethyl]morpholine;3-(Morpholin-4-yl)propionic acid ethyl ester",
    "duplicated_cas_no": "",
    "SMILES": "C(CC(OCC)=O)N1CCOCC1",
    "meta_data": {
        "InChI": "InChI=1S/C9H17NO3/c1-2-13-9(11)3-4-10-5-7-12-8-6-10/h2-8H2,1H3",
        "InChIKey": null,
        "Canonical SMILES": "O=C(OCC)CCN1CCOCC1",
        "Molecular Formula": "C<sub>9</sub>H<sub>17</sub>NO<sub>3</sub>",
        "Molecular Mass": "187.24",
        "Boiling Point": "112 °C @ Press: 9 Torr",
        "Melting Point": "129-130 °C",
        "Density": "1.0380 g/cm³ @ Temp: 20 °C"
    }
}