{
    "cas_no": "91714-93-1",
    "key_name": "Bromfenac sodium",
    "cn_name": "溴芬酸钠;[2-氨基-3-(4-溴苯甲酰基)苯基]乙酸钠;",
    "alternate_name": "Benzeneacetic acid, 2-amino-3-(4-bromobenzoyl)-, sodium salt (1:1);Benzeneacetic acid, 2-amino-3-(4-bromobenzoyl)-, monosodium salt;Bromfenac sodium;AHR 10282B;Bronuck",
    "duplicated_cas_no": "",
    "SMILES": "C(=O)(C1=C(N)C(CC(O)=O)=CC=C1)C2=CC=C(Br)C=C2.[Na]",
    "meta_data": {
        "InChI": "InChI=1S/C15H12BrNO3.Na/c16-11-6-4-9(5-7-11)15(20)12-3-1-2-10(14(12)17)8-13(18)19;/h1-7H,8,17H2,(H,18,19);",
        "InChIKey": null,
        "Canonical SMILES": "[Na].O=C(O)CC=1C=CC=C(C(=O)C2=CC=C(Br)C=C2)C1N",
        "Molecular Formula": "C<sub>15</sub>H<sub>12</sub>BrNO<sub>3</sub>.Na",
        "Molecular Mass": "",
        "Melting Point": "285 °C"
    }
}