{
    "cas_no": "4631-27-0",
    "key_name": "Cyclohexanone, 2-(methylamino)-2-phenyl-, hydrochloride (1:1)",
    "cn_name": null,
    "alternate_name": "Cyclohexanone, 2-(methylamino)-2-phenyl-, hydrochloride (1:1);Cyclohexanone, 2-(methylamino)-2-phenyl-, hydrochloride",
    "duplicated_cas_no": "",
    "SMILES": "N(C)C1(C(=O)CCCC1)C2=CC=CC=C2.Cl",
    "meta_data": {
        "InChI": "InChI=1S/C13H17NO.ClH/c1-14-13(10-6-5-9-12(13)15)11-7-3-2-4-8-11;/h2-4,7-8,14H,5-6,9-10H2,1H3;1H",
        "InChIKey": null,
        "Canonical SMILES": "Cl.O=C1CCCCC1(NC)C=2C=CC=CC2",
        "Molecular Formula": "C<sub>13</sub>H<sub>17</sub>NO.ClH",
        "Molecular Mass": "",
        "Melting Point": "255-257 °C"
    }
}