{
    "cas_no": "40626-29-7",
    "key_name": "Benzenemethanol, α-[(1<em>R</em>)-1-aminoethyl]-, hydrochloride (1:1), (α<em>S</em>)-",
    "cn_name": "右旋盐酸去甲麻黄碱;",
    "alternate_name": "Benzenemethanol, α-[(1<em>R</em>)-1-aminoethyl]-, hydrochloride (1:1), (α<em>S</em>)-;Benzenemethanol, α-(1-aminoethyl)-, hydrochloride, [<em>S</em>-(<em>R</em>*,<em>S</em>*)]-;Benzenemethanol, α-[(1<em>R</em>)-1-aminoethyl]-, hydrochloride, (α<em>S</em>)-;<em>d</em>-Phenylpropanolamine hydrochloride;(<em>R</em>)-(+)-α-Norephedrine hydrochloride;(1<em>S</em>,2<em>R</em>)-(+)-Norephedrine hydrochloride;(+)-Phenylpropanolamine hydrochloride;(1<em>S</em>,2<em>R</em>)-Norephedrine hydrochloride;(+)-Norephedrine hydrochloride;[<em>S</em>-(<em>R</em>*,<em>S</em>*)]-α-(1-Aminoethyl)benzyl alcohol hydrochloride",
    "duplicated_cas_no": "",
    "SMILES": "[C@H]([C@@H](C)N)(O)C1=CC=CC=C1.Cl",
    "meta_data": {
        "InChI": "InChI=1S/C9H13NO.ClH/c1-7(10)9(11)8-5-3-2-4-6-8;/h2-7,9,11H,10H2,1H3;1H/t7-,9-;/m1./s1",
        "InChIKey": null,
        "Canonical SMILES": "Cl.OC(C=1C=CC=CC1)C(N)C",
        "Molecular Formula": "C<sub>9</sub>H<sub>13</sub>NO.ClH",
        "Molecular Mass": "",
        "Melting Point": "188-190 °C"
    }
}