{
    "cas_no": "13120-77-9",
    "key_name": "2-Methoxy-1-methyl-4-nitrobenzene",
    "cn_name": "5-硝基-2-甲基苯甲醚;",
    "alternate_name": "Benzene, 2-methoxy-1-methyl-4-nitro-;Anisole, 2-methyl-5-nitro-;2-Methoxy-1-methyl-4-nitrobenzene;2-Methoxy-4-nitrotoluene;4-Nitro-2-methoxytoluene;2-Methyl-5-nitroanisole;NSC 25213;3-Methoxy-4-methylnitrobenzene",
    "duplicated_cas_no": "",
    "SMILES": "O(C)C1=CC(N(=O)=O)=CC=C1C",
    "meta_data": {
        "InChI": "InChI=1S/C8H9NO3/c1-6-3-4-7(9(10)11)5-8(6)12-2/h3-5H,1-2H3",
        "InChIKey": null,
        "Canonical SMILES": "O=N(=O)C1=CC=C(C(OC)=C1)C",
        "Molecular Formula": "C<sub>8</sub>H<sub>9</sub>NO<sub>3</sub>",
        "Molecular Mass": "167.16",
        "Melting Point": "69-70 °C"
    }
}