{
    "cas_no": "446-32-2",
    "key_name": "2-Amino-4-fluorobenzoic acid",
    "cn_name": "2-氨基-4-氟苯甲酸;4-氟-2-氨基苯甲酸;",
    "alternate_name": "Benzoic acid, 2-amino-4-fluoro-;Anthranilic acid, 4-fluoro-;2-Amino-4-fluorobenzoic acid;4-Fluoroanthranilic acid;4-Fluoro-2-aminobenzoic acid",
    "duplicated_cas_no": "",
    "SMILES": "C(O)(=O)C1=C(N)C=C(F)C=C1",
    "meta_data": {
        "InChI": "InChI=1S/C7H6FNO2/c8-4-1-2-5(7(10)11)6(9)3-4/h1-3H,9H2,(H,10,11)",
        "InChIKey": null,
        "Canonical SMILES": "O=C(O)C1=CC=C(F)C=C1N",
        "Molecular Formula": "C<sub>7</sub>H<sub>6</sub>FNO<sub>2</sub>",
        "Molecular Mass": "155.13",
        "Melting Point": "192.5-193 °C"
    }
}