{
    "cas_no": "1071-76-7",
    "key_name": "Zirconium tetrabutoxide",
    "cn_name": "正丁醇锆;锆酸四丁酯;",
    "alternate_name": "1-Butanol, zirconium(4+) salt (4:1);Butyl alcohol, zirconium(4+) salt;Zirconium butoxide;1-Butanol, zirconium(4+) salt;Tetrabutoxyzirconium;Tetrabutyl zirconate;Zirconium tetrabutoxide;Butyl zirconate;Zirconic acid tetrabutyl ester;Zirconium butylate;ZA 60;Zirconium butoxide (Zr(OBu)<sub>4</sub>);TBZr;Orgatix ZA 60;Tetrakis(butoxy)zirconium;Zirconium tetra(<em>n</em>-butoxide);TBZ (coupling agent);TBZ;Zirconium(IV) butoxide;Hokuko HZ-OB;Zirconium tetrakis(butoxide);AKZ 945;Orgatix A 60;Zirconium tetrakis(1-butoxide);Tetra-<em>n</em>-butyl zirconate;Zirconium(4+) butoxide;Tyzor NBZ;Orgatix ZA 65;Zirconium tetrabutanolate;ZA 65;Zirconium tetra-<em>n</em>-butylate;Zirconium (IV) <em>n</em>-butoxide;SG-Zr 802;CAT 77",
    "duplicated_cas_no": "60637-59-4;73264-99-0;216859-08-4;289885-00-3;365494-43-5;1641563-82-7",
    "SMILES": "C(CC)CO.[Zr]",
    "meta_data": {
        "InChI": "InChI=1S/C4H10O.Zr/c1-2-3-4-5;/h5H,2-4H2,1H3;",
        "InChIKey": null,
        "Canonical SMILES": "[Zr].OCCCC",
        "Molecular Formula": "C<sub>4</sub>H<sub>10</sub>O.<sup>1</sup>/<sub>4</sub>Zr",
        "Molecular Mass": "",
        "Boiling Point": "260 °C @ Press: 0.1 Torr",
        "Density": "1.070 g/cm³"
    }
}