{
    "cas_no": "190786-44-8",
    "key_name": "Bepotastine besilate",
    "cn_name": null,
    "alternate_name": "1-Piperidinebutanoic acid, 4-[(<em>S</em>)-(4-chlorophenyl)-2-pyridinylmethoxy]-, benzenesulfonate (1:1);1-Piperidinebutanoic acid, 4-[(4-chlorophenyl)-2-pyridinylmethoxy]-, (<em>S</em>)-, monobenzenesulfonate;1-Piperidinebutanoic acid, 4-[(<em>S</em>)-(4-chlorophenyl)-2-pyridinylmethoxy]-, monobenzenesulfonate;Bepotastine besilate;Talion;Bepotastine benzenesulfonate salt;BB;Bepreve;TAU 284;Bepotastine besylate;Bepotastine benzenesulfonate;(<em>S</em>)-4-[4-(4-chlorophenyl-2-pyridylmethoxy)piperidinyl]butyric acid benzenesulfonate;Tarion;Betatastine",
    "duplicated_cas_no": "",
    "SMILES": "[C@H](OC1CCN(CCCC(O)=O)CC1)(C2=CC=C(Cl)C=C2)C3=CC=CC=N3.S(=O)(=O)(O)C1=CC=CC=C1",
    "meta_data": {
        "InChI": "InChI=1S/C21H25ClN2O3.C6H6O3S/c22-17-8-6-16(7-9-17)21(19-4-1-2-12-23-19)27-18-10-14-24(15-11-18)13-3-5-20(25)26;7-10(8,9)6-4-2-1-3-5-6/h1-2,4,6-9,12,18,21H,3,5,10-11,13-15H2,(H,25,26);1-5H,(H,7,8,9)/t21-;/m0./s1",
        "InChIKey": null,
        "Canonical SMILES": "O=C(O)CCCN1CCC(OC(C2=NC=CC=C2)C3=CC=C(Cl)C=C3)CC1.O=S(=O)(O)C=1C=CC=CC1",
        "Molecular Formula": "C<sub>21</sub>H<sub>25</sub>ClN<sub>2</sub>O<sub>3</sub>.C<sub>6</sub>H<sub>6</sub>O<sub>3</sub>S",
        "Molecular Mass": "",
        "Melting Point": "161-163 °C"
    }
}