{
    "cas_no": "16255-48-4",
    "key_name": "(2<em>R</em>,3<em>R</em>)-2-[(2,2-Dichloroacetyl)amino]-3-hydroxy-3-(4-nitrophenyl)propyl octadecanoate",
    "cn_name": "氯霉素硬脂酸酯;[(2R,3R)-2-[(2,2-二氯乙酰)氨基]-3-羟基-3-(4-硝基苯基)丙基]硬脂酸酯;",
    "alternate_name": "Octadecanoic acid, (2<em>R</em>,3<em>R</em>)-2-[(2,2-dichloroacetyl)amino]-3-hydroxy-3-(4-nitrophenyl)propyl ester;Stearic acid, α-ester with <span class=\"text-smallcaps\">D</span>-<em>threo</em>-(-)-2,2-dichloro-<em>N</em>-[β-hydroxy-α-(hydroxymethyl)-<em>p</em>-nitrophenethyl]acetamide;Octadecanoic acid, 2-[(dichloroacetyl)amino]-3-hydroxy-3-(4-nitrophenyl)propyl ester, [<em>R</em>-(<em>R</em>*,<em>R</em>*)]-;Stearic acid, α-ester with 2,2-dichloro-<em>N</em>-[β-hydroxy-α-(hydroxymethyl)-<em>p</em>-nitrophenethyl]acetamide;Octadecanoic acid, (2<em>R</em>,3<em>R</em>)-2-[(dichloroacetyl)amino]-3-hydroxy-3-(4-nitrophenyl)propyl ester;Acetamide, 2,2-dichloro-<em>N</em>-[β-hydroxy-α-(hydroxymethyl)-<em>p</em>-nitrophenethyl]-, α-stearate, <span class=\"text-smallcaps\">D</span>-<em>threo</em>-(-)-;(2<em>R</em>,3<em>R</em>)-2-[(2,2-Dichloroacetyl)amino]-3-hydroxy-3-(4-nitrophenyl)propyl octadecanoate;Chloramphenicol stearate;Stearic acid, ester with chloramphenicol;Chloramphenicol stearic acid ester;Eusynthomycin;Madomicetina;Levomycetin stearate",
    "duplicated_cas_no": "1301-78-6",
    "SMILES": "[C@@H]([C@@H](COC(CCCCCCCCCCCCCCCCC)=O)NC(C(Cl)Cl)=O)(O)C1=CC=C(N(=O)=O)C=C1",
    "meta_data": {
        "InChI": "InChI=1S/C29H46Cl2N2O6/c1-2-3-4-5-6-7-8-9-10-11-12-13-14-15-16-17-26(34)39-22-25(32-29(36)28(30)31)27(35)23-18-20-24(21-19-23)33(37)38/h18-21,25,27-28,35H,2-17,22H2,1H3,(H,32,36)/t25-,27-/m1/s1",
        "InChIKey": null,
        "Canonical SMILES": "O=C(OCC(NC(=O)C(Cl)Cl)C(O)C1=CC=C(C=C1)N(=O)=O)CCCCCCCCCCCCCCCCC",
        "Molecular Formula": "C<sub>29</sub>H<sub>46</sub>Cl<sub>2</sub>N<sub>2</sub>O<sub>6</sub>",
        "Molecular Mass": "589.59",
        "Melting Point": "97-98 °C"
    }
}