{
    "cas_no": "135-70-6",
    "key_name": "<em>p</em>-Quaterphenyl",
    "cn_name": "对四联苯;",
    "alternate_name": "1,1′:4′,1′′:4′′,1′′′-Quaterphenyl;<em>p</em>-Quaterphenyl;Biphenyl, 4,4′-diphenyl-;Benzerythrene;Quadriphenyl;<em>p</em>-Tetraphenyl;1,1′-Biphenyl, 4,4′-diphenyl-;4,4′-Diphenylbiphenyl;PQP;NSC 24860;<em>p</em>-Phenylene tetramer",
    "duplicated_cas_no": "88026-50-0",
    "SMILES": "C1(=CC=C(C=C1)C2=CC=CC=C2)C3=CC=C(C=C3)C4=CC=CC=C4",
    "meta_data": {
        "InChI": "InChI=1S/C24H18/c1-3-7-19(8-4-1)21-11-15-23(16-12-21)24-17-13-22(14-18-24)20-9-5-2-6-10-20/h1-18H",
        "InChIKey": null,
        "Canonical SMILES": "C=1C=CC(=CC1)C=2C=CC(=CC2)C=3C=CC(=CC3)C=4C=CC=CC4",
        "Molecular Formula": "C<sub>24</sub>H<sub>18</sub>",
        "Molecular Mass": "306.40",
        "Boiling Point": "240-280 °C @ Press: 3 Torr",
        "Melting Point": "320 °C"
    }
}