{
    "cas_no": "93107-30-3",
    "key_name": "1-Cyclopropyl-6,7-difluoro-1,4-dihydro-4-oxo-3-quinolinecarboxylic acid",
    "cn_name": null,
    "alternate_name": "3-Quinolinecarboxylic acid, 1-cyclopropyl-6,7-difluoro-1,4-dihydro-4-oxo-;1-Cyclopropyl-6,7-difluoro-1,4-dihydro-4-oxo-3-quinolinecarboxylic acid;1-Cyclopropyl-6,7-difluoro-1,4-dihydro-4-oxoquinoline-3-carboxylic acid;X 3;1-Cyclopropyl-6,7-difluoro-4-oxo-1,4-dihydroquinoline-3-carboxylic acid;1-Cyclopropyl-6,7-difluoro-4-oxo-1,4-dihydroquinolin-3-carboxylic acid;1-Cyclopropyl-1,4-dihydro-6,7-difluoro-4-oxoquinoline-3-carboxylic acid;1-Cyclopropyl-6,7-difluoro-4-oxoquinoline-3-carboxylic acid",
    "duplicated_cas_no": "",
    "SMILES": "C(O)(=O)C1=CN(C=2C(C1=O)=CC(F)=C(F)C2)C3CC3",
    "meta_data": {
        "InChI": "InChI=1S/C13H9F2NO3/c14-9-3-7-11(4-10(9)15)16(6-1-2-6)5-8(12(7)17)13(18)19/h3-6H,1-2H2,(H,18,19)",
        "InChIKey": null,
        "Canonical SMILES": "O=C(O)C1=CN(C2=CC(F)=C(F)C=C2C1=O)C3CC3",
        "Molecular Formula": "C<sub>13</sub>H<sub>9</sub>F<sub>2</sub>NO<sub>3</sub>",
        "Molecular Mass": "265.21",
        "Melting Point": "284-286 °C"
    }
}