{
    "cas_no": "4442-53-9",
    "key_name": "1,4-Benzodioxan-5-carboxylic acid",
    "cn_name": "2,3-二氢-1,4-苯并二噁烷-5-羧酸;",
    "alternate_name": "1,4-Benzodioxin-5-carboxylic acid, 2,3-dihydro-;1,4-Benzodioxan-5-carboxylic acid;2,3-Dihydro-1,4-benzodioxin-5-carboxylic acid;1,4-Benzodioxane-5-carboxylic acid;2,3-Dihydrobenzo[1,4]dioxine-5-carboxylic acid;2,3-Dihydro-1,4-benzodioxane-5-carboxylic acid;2,3-Dihydrobenzo[<em>b</em>][1,4]dioxine-5-carboxylic acid",
    "duplicated_cas_no": "",
    "SMILES": "C(O)(=O)C1=C2C(=CC=C1)OCCO2",
    "meta_data": {
        "InChI": "InChI=1S/C9H8O4/c10-9(11)6-2-1-3-7-8(6)13-5-4-12-7/h1-3H,4-5H2,(H,10,11)",
        "InChIKey": null,
        "Canonical SMILES": "O=C(O)C=1C=CC=C2OCCOC21",
        "Molecular Formula": "C<sub>9</sub>H<sub>8</sub>O<sub>4</sub>",
        "Molecular Mass": "180.16",
        "Melting Point": "195.5-196.5 °C"
    }
}