{
    "cas_no": "90407-21-9",
    "key_name": "2-Bromo-3-nitrobenzaldehyde",
    "cn_name": null,
    "alternate_name": "Benzaldehyde, 2-bromo-3-nitro-;2-Bromo-3-nitrobenzaldehyde",
    "duplicated_cas_no": "",
    "SMILES": "N(=O)(=O)C1=C(Br)C(C=O)=CC=C1",
    "meta_data": {
        "InChI": "InChI=1S/C7H4BrNO3/c8-7-5(4-10)2-1-3-6(7)9(11)12/h1-4H",
        "InChIKey": null,
        "Canonical SMILES": "O=CC1=CC=CC(=C1Br)N(=O)=O",
        "Molecular Formula": "C<sub>7</sub>H<sub>4</sub>BrNO<sub>3</sub>",
        "Molecular Mass": "230.02",
        "Melting Point": "92 °C"
    }
}