{
    "cas_no": "121-91-5",
    "key_name": "Isophthalic acid",
    "cn_name": "间苯二甲酸;间酞酸;1,3-苯二甲酸;",
    "alternate_name": "1,3-Benzenedicarboxylic acid;Isophthalic acid;<em>m</em>-Benzenedicarboxylic acid;<em>m</em>-Phthalic acid;<em>m</em>-Dicarboxybenzene;<em>m</em>-Carboxybenzoic acid;Isoterephthalic acid;m-Phthalic acid;3-Carboxybenzoic acid;NSC 15310;HA 20 (acid);HA 20;1,3-Phenylenedicarboxylic acid",
    "duplicated_cas_no": "55185-18-7;2088100-84-7",
    "SMILES": "C(O)(=O)C1=CC(C(O)=O)=CC=C1",
    "meta_data": {
        "InChI": "InChI=1S/C8H6O4/c9-7(10)5-2-1-3-6(4-5)8(11)12/h1-4H,(H,9,10)(H,11,12)",
        "InChIKey": null,
        "Canonical SMILES": "O=C(O)C1=CC=CC(=C1)C(=O)O",
        "Molecular Formula": "C<sub>8</sub>H<sub>6</sub>O<sub>4</sub>",
        "Molecular Mass": "166.13",
        "Boiling Point": "100 °C",
        "Melting Point": "347 °C",
        "Density": "1.507 g/cm³ @ Temp: 20 °C"
    }
}