{
    "cas_no": "1698-54-0",
    "key_name": "6-Hydroxy-2-phenyl-3(2<em>H</em>)-pyridazinone",
    "cn_name": "6-羟基-2-苯基-3-哒酮;6-羟基-2-苯基(2H)-哒嗪-3-酮;",
    "alternate_name": "3,6-Pyridazinedione, 1,2-dihydro-1-phenyl-;1,2-Dihydro-1-phenyl-3,6-pyridazinedione;6-Hydroxy-2-phenyl-3(2<em>H</em>)-pyridazinone;Phenyl maleic hydrazide;Maleic acid phenylhydrazide;2-Phenyl-6-hydroxy-3(2<em>H</em>)-pyridazinone;NSC 163341;NSC 17181;1-Phenyl-1,2-dihydropyridazine-3,6-dione;2-Phenyl-1<em>H</em>-pyridazine-3,6-dione;2-Phenyl-3-oxo-6-hydroxy-2<em>H</em>-pyridazine",
    "duplicated_cas_no": "5446-15-1",
    "SMILES": "O=C1N(NC(=O)C=C1)C2=CC=CC=C2",
    "meta_data": {
        "InChI": "InChI=1S/C10H8N2O2/c13-9-6-7-10(14)12(11-9)8-4-2-1-3-5-8/h1-7H,(H,11,13)",
        "InChIKey": null,
        "Canonical SMILES": "O=C1C=CC(=O)N(N1)C=2C=CC=CC2",
        "Molecular Formula": "C<sub>10</sub>H<sub>8</sub>N<sub>2</sub>O<sub>2</sub>",
        "Molecular Mass": "188.18",
        "Melting Point": "272-274 °C"
    }
}