{
    "cas_no": "105-60-2",
    "key_name": "Caprolactam",
    "cn_name": "1,6-己内酰胺;",
    "alternate_name": "2<em>H</em>-Azepin-2-one, hexahydro-;Hexahydro-2<em>H</em>-azepin-2-one;Aminocaproic lactam;Caprolactam;ε-Caprolactam;2-Ketohexamethylenimine;2-Oxohexamethylenimine;Hexanoic acid, 6-amino-, cyclic lactam;Hexahydro-2-azepinone;2-Azacycloheptanone;6-Caprolactam;6-Hexanelactam;2-Perhydroazepinone;ω-Caprolactam;1-Aza-2-cycloheptanone;Hexanolactam;Azepan-2-one;Hexano-6-lactam;NSC 117393;NSC 25536;NSC 4977;Hexahydro-1<em>H</em>-azepin-2-one;AP;AP (lactam);A 19374;2-Oxoazepane;6-Aminohexanoic acid lactam;AP-Nylon;C 2204;MeSH ID: D002209",
    "duplicated_cas_no": "117955-36-9;2953-03-9;32838-21-4;32838-23-6;34876-18-1;168214-28-6",
    "SMILES": "O=C1CCCCCN1",
    "meta_data": {
        "InChI": "InChI=1S/C6H11NO/c8-6-4-2-1-3-5-7-6/h1-5H2,(H,7,8)",
        "InChIKey": null,
        "Canonical SMILES": "O=C1NCCCCC1",
        "Molecular Formula": "C<sub>6</sub>H<sub>11</sub>NO",
        "Molecular Mass": "113.16",
        "Boiling Point": "270 °C",
        "Melting Point": "69.3 °C",
        "Density": "1.02 g/cm³"
    }
}