{
    "cas_no": "3308-94-9",
    "key_name": "2-(3-Chloropropyl)-2-(4-fluorophenyl)-1,3-dioxolane",
    "cn_name": "2-(3-氯丙基)-2-(4-氟苯基)-1,3-二氧戊烷;",
    "alternate_name": "1,3-Dioxolane, 2-(3-chloropropyl)-2-(4-fluorophenyl)-;1,3-Dioxolane, 2-(3-chloropropyl)-2-(<em>p</em>-fluorophenyl)-;2-(3-Chloropropyl)-2-(4-fluorophenyl)-1,3-dioxolane;2-(3-Chloropropyl)-2-(<em>p</em>-fluorophenyl)-1,3-dioxolane;4-Chloro-<em>p</em>-fluorobutyrophenone cyclic ethylene acetal;4-(<em>p</em>-Fluorophenyl)-4,4-ethylenedioxy-1-chlorobutane;4-(4-Fluorophenyl)-4,4-ethylenedioxy-1-chlorobutane;4-Chloro-1-(<em>p</em>-fluorophenyl)-1-butanone cyclic ethylene acetal;1-Chloro-4,4-(ethylenedioxy)-4-(4-fluorophenyl)butane;1,1-(Ethylenedioxy)-4-chloro-1-(4-fluorophenyl)butane;2-(3-Chloropropyl)-2-(<em>p</em>-fluorophenyl)dioxolane;4,4-(Ethylenedioxy)-4-(4-fluorophenyl)butyl chloride;1-(4-Fluorophenyl)-4-chlorobutan-1-one ethylene ketal;2-(3-Chloropropyl)-2-(4′-fluorophenyl)-1,3-dioxolane;3-<em>p</em>-Fluorobenzoylpropyl chloride ethylene ketal;3-Chloropropyl 4-fluorophenyl ketone ethylene ketal;4-Chloro-4′-fluorobutyrophenone cyclic ethylene ketal;2-(3-Chloropropyl)-2-(4-fluorophenyl)dioxolane;4′-Fluoro-4-chlorobutyrophenone ethylene ketal;2-(4-Fluorophenyl)-2-(3-chloropropyl)-1,3-dioxolane;4-Chloro-1,1-ethylenedioxy-1-(4-fluorophenyl)butane",
    "duplicated_cas_no": "1314110-91-2",
    "SMILES": "C(CCCl)C1(OCCO1)C2=CC=C(F)C=C2",
    "meta_data": {
        "InChI": "InChI=1S/C12H14ClFO2/c13-7-1-6-12(15-8-9-16-12)10-2-4-11(14)5-3-10/h2-5H,1,6-9H2",
        "InChIKey": null,
        "Canonical SMILES": "FC1=CC=C(C=C1)C2(OCCO2)CCCCl",
        "Molecular Formula": "C<sub>12</sub>H<sub>14</sub>ClFO<sub>2</sub>",
        "Molecular Mass": "244.69",
        "Boiling Point": "101-103 °C @ Press: 0.2 Torr"
    }
}