{
    "cas_no": "7333-52-0",
    "key_name": "Cyclopentyltriphenylphosphonium bromide",
    "cn_name": "溴代三苯基膦环戊酯;",
    "alternate_name": "Phosphonium, cyclopentyltriphenyl-, bromide (1:1);Phosphonium, cyclopentyltriphenyl-, bromide;Cyclopentyltriphenylphosphonium bromide",
    "duplicated_cas_no": "445039-86-1",
    "SMILES": "[P+](C1CCCC1)(C2=CC=CC=C2)(C3=CC=CC=C3)C4=CC=CC=C4.[Br-]",
    "meta_data": {
        "InChI": "InChI=1S/C23H24P.BrH/c1-4-12-20(13-5-1)24(23-18-10-11-19-23,21-14-6-2-7-15-21)22-16-8-3-9-17-22;/h1-9,12-17,23H,10-11,18-19H2;1H/q+1;/p-1",
        "InChIKey": null,
        "Canonical SMILES": "[Br-].C=1C=CC(=CC1)[P+](C=2C=CC=CC2)(C=3C=CC=CC3)C4CCCC4",
        "Molecular Formula": "C<sub>23</sub>H<sub>24</sub>P.Br",
        "Molecular Mass": "",
        "Melting Point": "261-263 °C"
    }
}