{
    "cas_no": "15299-99-7",
    "key_name": "Napropamide",
    "cn_name": null,
    "alternate_name": "Propanamide, <em>N</em>,<em>N</em>-diethyl-2-(1-naphthalenyloxy)-;Propionamide, <em>N</em>,<em>N</em>-diethyl-2-(1-naphthyloxy)-;<em>N</em>,<em>N</em>-Diethyl-2-(1-naphthalenyloxy)propanamide;R 7465;2-(α-Naphthoxy)-<em>N</em>,<em>N</em>-diethylpropionamide;Napropamide;Devrinol;Napropamid;<em>N</em>,<em>N</em>-Diethyl-2-(1-naphthalenyloxy)propionamide;Racemic devrinol;(±)-Devrinol;<em>N</em>,<em>N</em>-Diethyl-2-(1-naphthyloxy)propanamide;<em>N</em>,<em>N</em>-Diethyl-2-(1-naphthoxy)propionamide",
    "duplicated_cas_no": "154799-64-1",
    "SMILES": "O(C(C(N(CC)CC)=O)C)C=1C2=C(C=CC1)C=CC=C2",
    "meta_data": {
        "InChI": "InChI=1S/C17H21NO2/c1-4-18(5-2)17(19)13(3)20-16-12-8-10-14-9-6-7-11-15(14)16/h6-13H,4-5H2,1-3H3",
        "InChIKey": null,
        "Canonical SMILES": "O=C(N(CC)CC)C(OC1=CC=CC=2C=CC=CC12)C",
        "Molecular Formula": "C<sub>17</sub>H<sub>21</sub>NO<sub>2</sub>",
        "Molecular Mass": "271.35",
        "Melting Point": "75 °C"
    }
}