{
    "cas_no": "83480-64-2",
    "key_name": "Ginsenoside Rd<sub>2</sub>",
    "cn_name": null,
    "alternate_name": "β-<span class=\"text-smallcaps\">D</smallcap>-Glucopyranoside, (3β,12β)-3-(β-<smallcap>D</smallcap>-glucopyranosyloxy)-12-hydroxydammar-24-en-20-yl 6-<em>O</em>-α-<smallcap>L</span>-arabinopyranosyl-;(3β,12β)-3-(β-<span class=\"text-smallcaps\">D</smallcap>-Glucopyranosyloxy)-12-hydroxydammar-24-en-20-yl 6-<em>O</em>-α-<smallcap>L</smallcap>-arabinopyranosyl-β-<smallcap>D</span>-glucopyranoside;Ginsenoside Rd<sub>2</sub>;Quinquenoside L10;Ginsenoside C-O;3-<em>O</em>-β-<span class=\"text-smallcaps\">D</span>-Glucopyranosylginsenoside C-Y;Ginsenoside compound O;3-<em>O</em>-Glucosylginsenoside C Y",
    "duplicated_cas_no": "83712-75-8",
    "SMILES": "C[C@]12[C@@]3(C)[C@@]([C@@]([C@@](O[C@@H]4O[C@H](CO[C@H]5[C@H](O)[C@@H](O)[C@@H](O)CO5)[C@@H](O)[C@H](O)[C@H]4O)(CCC=C(C)C)C)(CC3)[H])([C@H](O)C[C@@]1([C@]6(C)[C@@](CC2)(C(C)(C)[C@@H](O[C@@H]7O[C@H](CO)[C@@H](O)[C@H](O)[C@H]7O)CC6)[H])[H])[H]",
    "meta_data": {
        "InChI": "InChI=1S/C47H80O17/c1-22(2)10-9-14-47(8,64-42-39(58)36(55)34(53)27(62-42)21-60-40-37(56)32(51)25(50)20-59-40)23-11-16-46(7)31(23)24(49)18-29-44(5)15-13-30(43(3,4)28(44)12-17-45(29,46)6)63-41-38(57)35(54)33(52)26(19-48)61-41/h10,23-42,48-58H,9,11-21H2,1-8H3/t23-,24+,25-,26+,27+,28-,29+,30-,31-,32-,33+,34+,35-,36-,37+,38+,39+,40-,41-,42-,44-,45+,46+,47-/m0/s1",
        "InChIKey": null,
        "Canonical SMILES": "OCC1OC(OC2CCC3(C)C(CCC4(C)C3CC(O)C5C(CCC54C)C(OC6OC(COC7OCC(O)C(O)C7O)C(O)C(O)C6O)(C)CCC=C(C)C)C2(C)C)C(O)C(O)C1O",
        "Molecular Formula": "C<sub>47</sub>H<sub>80</sub>O<sub>17</sub>",
        "Molecular Mass": "917.13",
        "Melting Point": "185-186 °C"
    }
}