{
    "cas_no": "1314-56-3",
    "key_name": "Phosphorus pentoxide",
    "cn_name": "五氧化二磷;磷酸酐;磷酐;",
    "alternate_name": "Phosphorus oxide (P<sub>2</sub>O<sub>5</sub>);Diphosphorus pentoxide;Phosphoric anhydride;Phosphorus pentaoxide;Phosphorus pentoxide;Diphosphorus pentaoxide;Phosphoric pentoxide;Diphosphorus pentaoxide (P<sub>2</sub>O<sub>5</sub>);Phosphorus oxide;Phosphoric acid anhydride;Phosphoric oxide",
    "duplicated_cas_no": "24377-84-2;50811-86-4;59778-57-3;72906-42-4;2566863-42-9",
    "SMILES": "",
    "meta_data": {
        "InChI": "",
        "InChIKey": null,
        "Canonical SMILES": "",
        "Molecular Formula": "O<sub>5</sub>P<sub>2</sub>",
        "Molecular Mass": "",
        "Boiling Point": "500 °C @ Press: 550 Torr",
        "Melting Point": "340 °C",
        "Density": "2.30 g/cm³"
    }
}