{
    "uri": "substance/pt/1314563",
    "rn": "1314-56-3",
    "name": "Phosphorus pentoxide",
    "images": [],
    "inchi": "",
    "inchiKey": "",
    "smile": "",
    "canonicalSmile": "",
    "molecularFormula": "O<sub>5</sub>P<sub>2</sub>",
    "molecularMass": "",
    "experimentalProperties": [
        {
            "name": "Boiling Point",
            "property": "500 °C @ Press: 550 Torr",
            "sourceNumber": 1
        },
        {
            "name": "Melting Point",
            "property": "340 °C",
            "sourceNumber": 2
        },
        {
            "name": "Density",
            "property": "2.30 g/cm³",
            "sourceNumber": 3
        }
    ],
    "propertyCitations": [
        {
            "docUri": "document/pt/patent/61497790",
            "sourceNumber": 1,
            "source": "Wan, Hezhi; CN1887698, A, 2007, CAplus"
        },
        {
            "docUri": "",
            "sourceNumber": 2,
            "source": "International Chemical Safety Cards data were obtained from the National Institute for Occupational Safety and Health (US)"
        },
        {
            "docUri": "",
            "sourceNumber": 3,
            "source": "Hazardous Substances Data Bank data were obtained from the National Library of Medicine (US)"
        }
    ],
    "synonyms": [
        "Phosphorus oxide (P<sub>2</sub>O<sub>5</sub>)",
        "Diphosphorus pentoxide",
        "Phosphoric anhydride",
        "Phosphorus pentaoxide",
        "Phosphorus pentoxide",
        "Diphosphorus pentaoxide",
        "Phosphoric pentoxide",
        "Diphosphorus pentaoxide (P<sub>2</sub>O<sub>5</sub>)",
        "Phosphorus oxide",
        "Phosphoric acid anhydride",
        "Phosphoric oxide"
    ],
    "replacedRns": [
        "24377-84-2",
        "50811-86-4",
        "59778-57-3",
        "72906-42-4",
        "2566863-42-9"
    ],
    "hasMolfile": false,
    "source": "https://commonchemistry.cas.org/detail?cas_rn=1314-56-3"
}