{
    "cas_no": "4653-08-1",
    "key_name": "γ-Oxo-2-thiophenebutanoic acid",
    "cn_name": "4-羰基-4-(2-噻吩基)丁酸;3-(2-噻吩甲基)丙酸;",
    "alternate_name": "2-Thiophenebutanoic acid, γ-oxo-;2-Thiophenebutyric acid, γ-oxo-;γ-Oxo-2-thiophenebutanoic acid;3-(2-Thenoyl)propionic acid;β-(2-Thenoyl)propionic acid;4-Oxo-4-(2-thienyl)butyric acid;β-(α-Thenoyl)propionic acid;3-(2-Thienoyl)propionic acid;NSC 31635;NSC 9624;4-Oxo-4-(thiophen-2-yl)butyric acid;3-(Thiophene-2-carbonyl)propionic acid;4-Oxo-4-(thiophen-2-yl)butanoic acid;4-Oxo-4-(thien-2-yl)butanoic acid;3-(Thien-2-oyl)propanoic acid;4-(2-Thienyl)-4-oxobutanoic acid",
    "duplicated_cas_no": "",
    "SMILES": "C(CCC(O)=O)(=O)C1=CC=CS1",
    "meta_data": {
        "InChI": "InChI=1S/C8H8O3S/c9-6(3-4-8(10)11)7-2-1-5-12-7/h1-2,5H,3-4H2,(H,10,11)",
        "InChIKey": null,
        "Canonical SMILES": "O=C(O)CCC(=O)C=1SC=CC1",
        "Molecular Formula": "C<sub>8</sub>H<sub>8</sub>O<sub>3</sub>S",
        "Molecular Mass": "184.21",
        "Melting Point": "119-120 °C"
    }
}