{
    "cas_no": "5393-81-7",
    "key_name": "2-Hydroxydecanoic acid",
    "cn_name": "羟基癸酸;羟基癸酸;",
    "alternate_name": "Decanoic acid, 2-hydroxy-;2-Hydroxydecanoic acid;α-Hydroxydecanoic acid;2-Hydroxycapric acid;(±)-α-Hydroxycapric acid;<span class=\"text-smallcaps\">DL</span>-2-Hydroxycapric acid;(±)-2-Hydroxydecanoic acid;(±)-α-Hydroxydecanoic acid;NSC 4801;α-Hydroxycapric acid",
    "duplicated_cas_no": "37639-46-6",
    "SMILES": "C(C(C(O)=O)O)CCCCCCC",
    "meta_data": {
        "InChI": "InChI=1S/C10H20O3/c1-2-3-4-5-6-7-8-9(11)10(12)13/h9,11H,2-8H2,1H3,(H,12,13)",
        "InChIKey": null,
        "Canonical SMILES": "O=C(O)C(O)CCCCCCCC",
        "Molecular Formula": "C<sub>10</sub>H<sub>20</sub>O<sub>3</sub>",
        "Molecular Mass": "188.26",
        "Boiling Point": "90-91 °C @ Press: 20 Torr",
        "Melting Point": "70.5 °C"
    }
}