{
    "cas_no": "1099-87-2",
    "key_name": "Sodium prasterone sulfate",
    "cn_name": "去氢表雄酮硫酸钠;硫酸普拉睾酮钠;",
    "alternate_name": "Androst-5-en-17-one, 3-(sulfooxy)-, sodium salt (1:1), (3β)-;Androst-5-en-17-one, 3β-hydroxy-, hydrogen sulfate, sodium salt;Androst-5-en-17-one, 3-(sulfooxy)-, sodium salt, (3β)-;Dehydroepiandrosterone sulfate sodium salt;Dehydroisoandrosterone sulfate sodium salt;Sodium dehydroepiandrosterone-3-sulfate;Sodium dehydroepiandrosterone sulfate;Sodium prasterone sulfate;Mylis;Teloin;Prasterone sodium sulfate;DHA-S;NSC 72822;DHEA sulfate sodium salt",
    "duplicated_cas_no": "99684-22-7;124216-71-3",
    "SMILES": "C[C@@]12[C@@]3([C@]([C@]4([C@](C)(CC3)C(=O)CC4)[H])(CC=C1C[C@@H](OS(=O)(=O)O)CC2)[H])[H].[Na]",
    "meta_data": {
        "InChI": "InChI=1S/C19H28O5S.Na/c1-18-9-7-13(24-25(21,22)23)11-12(18)3-4-14-15-5-6-17(20)19(15,2)10-8-16(14)18;/h3,13-16H,4-11H2,1-2H3,(H,21,22,23);/t13-,14-,15-,16-,18-,19-;/m0./s1",
        "InChIKey": null,
        "Canonical SMILES": "[Na].O=C1CCC2C3CC=C4CC(OS(=O)(=O)O)CCC4(C)C3CCC12C",
        "Molecular Formula": "C<sub>19</sub>H<sub>28</sub>O<sub>5</sub>S.Na",
        "Molecular Mass": "",
        "Melting Point": "154 °C (decomp)"
    }
}