{
    "cas_no": "846-63-9",
    "key_name": "2-(1-Naphthyl)-5-phenyloxazole",
    "cn_name": null,
    "alternate_name": "Oxazole, 2-(1-naphthalenyl)-5-phenyl-;Oxazole, 2-(1-naphthyl)-5-phenyl-;2-(1-Naphthalenyl)-5-phenyloxazole;α-Naphthyl-2-phenyl-5-oxazole-1,3;2-(1-Naphthyl)-5-phenyloxazole;2-(1-Naphthyl)-5-phenyl-1,3-oxazole;α-NPO;2-Phenyl-5-α-naphthyl-1,4-oxazole;2-α-Naphthyl-5-phenyloxazole;ANPO;α-Naphthylphenyloxazole;NSC 24857;2-Naphthalen-1-yl-5-phenyl-1,3-oxazole",
    "duplicated_cas_no": "26519-71-1",
    "SMILES": "C=1(C2=C(C=CC1)C=CC=C2)C=3OC(=CN3)C4=CC=CC=C4",
    "meta_data": {
        "InChI": "InChI=1S/C19H13NO/c1-2-8-15(9-3-1)18-13-20-19(21-18)17-12-6-10-14-7-4-5-11-16(14)17/h1-13H",
        "InChIKey": null,
        "Canonical SMILES": "N=1C=C(OC1C=2C=CC=C3C=CC=CC32)C=4C=CC=CC4",
        "Molecular Formula": "C<sub>19</sub>H<sub>13</sub>NO",
        "Molecular Mass": "271.31",
        "Melting Point": "104-106 °C"
    }
}