{
    "cas_no": "98-10-2",
    "key_name": "Benzenesulfonamide",
    "cn_name": "苯磺酰胺;BSA;",
    "alternate_name": "Benzenesulfonamide;Benzenesulphonamide;M and B 7973;Phenylsulfonamide;NSC 5341;NSC 85506;Benzenesulfonyl amine",
    "duplicated_cas_no": "",
    "SMILES": "S(N)(=O)(=O)C1=CC=CC=C1",
    "meta_data": {
        "InChI": "InChI=1S/C6H7NO2S/c7-10(8,9)6-4-2-1-3-5-6/h1-5H,(H2,7,8,9)",
        "InChIKey": null,
        "Canonical SMILES": "O=S(=O)(N)C=1C=CC=CC1",
        "Molecular Formula": "C<sub>6</sub>H<sub>7</sub>NO<sub>2</sub>S",
        "Molecular Mass": "157.19",
        "Melting Point": "151 °C"
    }
}