{
    "cas_no": "5807-02-3",
    "key_name": "4-Morpholineacetonitrile",
    "cn_name": "吗啉乙腈;",
    "alternate_name": "4-Morpholineacetonitrile;<em>N</em>-(Cyanomethyl)morpholine;Morpholinoacetonitrile;NSC 14518;NSC 47256;2-Morpholinoacetonitrile;2-(Morpholin-4-yl)acetonitrile;2-Morpholin-4-ylacetonitrile",
    "duplicated_cas_no": "",
    "SMILES": "C(C#N)N1CCOCC1",
    "meta_data": {
        "InChI": "InChI=1S/C6H10N2O/c7-1-2-8-3-5-9-6-4-8/h2-6H2",
        "InChIKey": null,
        "Canonical SMILES": "N#CCN1CCOCC1",
        "Molecular Formula": "C<sub>6</sub>H<sub>10</sub>N<sub>2</sub>O",
        "Molecular Mass": "126.16",
        "Boiling Point": "78 °C @ Press: 2 Torr",
        "Melting Point": "60-61 °C"
    }
}