{
    "cas_no": "4122-04-7",
    "key_name": "1,3,5-Triazin-2-amine",
    "cn_name": "2-氨基-1,3,5-三嗪;",
    "alternate_name": "1,3,5-Triazin-2-amine;<em>s</em>-Triazine, 2-amino-;Aminotriazine;2-Amino-1,3,5-triazine;2-Amino-<em>s</em>-triazine;NSC 54656;Amino-1,3,5-triazine",
    "duplicated_cas_no": "",
    "SMILES": "NC=1N=CN=CN1",
    "meta_data": {
        "InChI": "InChI=1S/C3H4N4/c4-3-6-1-5-2-7-3/h1-2H,(H2,4,5,6,7)",
        "InChIKey": null,
        "Canonical SMILES": "N=1C=NC(=NC1)N",
        "Molecular Formula": "C<sub>3</sub>H<sub>4</sub>N<sub>4</sub>",
        "Molecular Mass": "96.09",
        "Boiling Point": "195-205 °C",
        "Melting Point": "224 °C (decomp)"
    }
}