{
    "cas_no": "7439-96-5",
    "key_name": "Manganese",
    "cn_name": "锰;金属锰;锰粉;",
    "alternate_name": "Manganese;Colloidal manganese;Cutaval;Manganese-55;JIS-G 1213;Manganese element;Teprosyn Mn;Ele-Max Manganese;MNE 06PB;Amiplus Mn;Basfoliar Manganes;SuperMan;Oligo-Mn;MeSH ID: D008345",
    "duplicated_cas_no": "8031-40-1;8075-39-6;17375-02-9;39303-06-5;195161-78-5",
    "SMILES": "[Mn]",
    "meta_data": {
        "InChI": "InChI=1S/Mn",
        "InChIKey": null,
        "Canonical SMILES": "[Mn]",
        "Molecular Formula": "Mn",
        "Molecular Mass": "",
        "Boiling Point": "2095 °C",
        "Melting Point": "1244 °C",
        "Density": "7.44 g/cm³"
    }
}