{
    "cas_no": "7418-66-8",
    "key_name": "4-Amino-3-pyridinecarboxamide",
    "cn_name": null,
    "alternate_name": "3-Pyridinecarboxamide, 4-amino-;Nicotinamide, 4-amino-;4-Amino-3-pyridinecarboxamide;4-Aminonicotinamide",
    "duplicated_cas_no": "",
    "SMILES": "C(N)(=O)C=1C(N)=CC=NC1",
    "meta_data": {
        "InChI": "InChI=1S/C6H7N3O/c7-5-1-2-9-3-4(5)6(8)10/h1-3H,(H2,7,9)(H2,8,10)",
        "InChIKey": null,
        "Canonical SMILES": "O=C(N)C=1C=NC=CC1N",
        "Molecular Formula": "C<sub>6</sub>H<sub>7</sub>N<sub>3</sub>O",
        "Molecular Mass": "137.14",
        "Melting Point": "229.5-230.5 °C"
    }
}