{
    "cas_no": "481-39-0",
    "key_name": "Juglone",
    "cn_name": "5-羟基对萘醌;5-羟基-1,4-萘醌;胡桃醌;",
    "alternate_name": "1,4-Naphthalenedione, 5-hydroxy-;Juglone;1,4-Naphthoquinone, 5-hydroxy-;5-Hydroxy-1,4-naphthalenedione;C.I. 75500;Akhnot;C.I. Natural Brown 7;5-Hydroxy-1,4-naphthoquinone;Juglon;Nucin;Regianin;Walnut Extract;5-Hydroxynaphthoquinone;8-Hydroxy-1,4-naphthoquinone;1,4-Dihydro-1,4-dioxo-5-hydroxynaphthalene;NSC 153189;NSC 34266;NSC 622948;Natural Brown 7",
    "duplicated_cas_no": "",
    "SMILES": "O=C1C=2C(C(=O)C=C1)=C(O)C=CC2",
    "meta_data": {
        "InChI": "InChI=1S/C10H6O3/c11-7-4-5-9(13)10-6(7)2-1-3-8(10)12/h1-5,12H",
        "InChIKey": null,
        "Canonical SMILES": "O=C1C=CC(=O)C=2C(O)=CC=CC12",
        "Molecular Formula": "C<sub>10</sub>H<sub>6</sub>O<sub>3</sub>",
        "Molecular Mass": "174.15",
        "Melting Point": "155 °C"
    }
}