{
    "cas_no": "604-69-3",
    "key_name": "β-<span class=\"text-smallcaps\">D</span>-Glucose pentaacetate",
    "cn_name": "1,2,3,4,6-beta-D-葡萄糖五乙酸酯;",
    "alternate_name": "β-<span class=\"text-smallcaps\">D</span>-Glucopyranose, 1,2,3,4,6-pentaacetate;Glucopyranose, pentaacetate, β-<span class=\"text-smallcaps\">D</span>-;β-<span class=\"text-smallcaps\">D</span>-Glucopyranose, pentaacetate;β-<span class=\"text-smallcaps\">D</span>-Glucose pentaacetate;Penta-<em>O</em>-acetyl-β-<span class=\"text-smallcaps\">D</span>-glucopyranose;Pentaacetyl-β-<span class=\"text-smallcaps\">D</span>-glucose;Pentaacetyl-β-<span class=\"text-smallcaps\">D</span>-glucopyranose;1,2,3,4,6-Penta-<em>O</em>-acetyl-β-<span class=\"text-smallcaps\">D</span>-glucopyranose;β-<span class=\"text-smallcaps\">D</span>-Glucopyranosyl pentaacetate;Per-<em>O</em>-acetyl-β-<span class=\"text-smallcaps\">D</span>-glucopyranose;2,3,4,6-Tetra-<em>O</em>-acetyl-β-<span class=\"text-smallcaps\">D</span>-glucopyranosyl acetate;NSC 214078;Penta-<em>O</em>-acetyl-β-<span class=\"text-smallcaps\">D</span>-glucose;Tetra-<em>O</em>-acetyl-β-<span class=\"text-smallcaps\">D</span>-glucopyranosyl acetate;β-<span class=\"text-smallcaps\">D</span>-Glucopyranose peracetate;β-<span class=\"text-smallcaps\">D</span>-Glucopyranoside peracetate",
    "duplicated_cas_no": "58581-81-0",
    "SMILES": "O(C(C)=O)[C@H]1[C@H](OC(C)=O)[C@@H](COC(C)=O)O[C@@H](OC(C)=O)[C@@H]1OC(C)=O",
    "meta_data": {
        "InChI": "InChI=1S/C16H22O11/c1-7(17)22-6-12-13(23-8(2)18)14(24-9(3)19)15(25-10(4)20)16(27-12)26-11(5)21/h12-16H,6H2,1-5H3/t12-,13-,14+,15-,16-/m1/s1",
        "InChIKey": null,
        "Canonical SMILES": "O=C(OCC1OC(OC(=O)C)C(OC(=O)C)C(OC(=O)C)C1OC(=O)C)C",
        "Molecular Formula": "C<sub>16</sub>H<sub>22</sub>O<sub>11</sub>",
        "Molecular Mass": "390.34",
        "Boiling Point": "0.115-20 °C @ Press: 5 x 10<sup>-4</sup> Torr",
        "Melting Point": "134 °C"
    }
}