{
    "cas_no": "6763-34-4",
    "key_name": "α-<span class=\"text-smallcaps\">D</span>-Xylopyranose",
    "cn_name": "D-木糖;五碳醛糖;",
    "alternate_name": "α-<span class=\"text-smallcaps\">D</span>-Xylopyranose;Xylopyranose, α-<span class=\"text-smallcaps\">D</span>-;Holzzucker;Losan;α-<span class=\"text-smallcaps\">D</span>-Xylose;α-Xylose",
    "duplicated_cas_no": "31178-70-8;67528-45-4",
    "SMILES": "O[C@@H]1[C@@H](O)[C@@H](O)OC[C@H]1O",
    "meta_data": {
        "InChI": "InChI=1S/C5H10O5/c6-2-1-10-5(9)4(8)3(2)7/h2-9H,1H2/t2-,3+,4-,5+/m1/s1",
        "InChIKey": null,
        "Canonical SMILES": "OC1OCC(O)C(O)C1O",
        "Molecular Formula": "C<sub>5</sub>H<sub>10</sub>O<sub>5</sub>",
        "Molecular Mass": "150.13",
        "Melting Point": "146-147 °C",
        "Density": "1.0348952 g/cm³ @ Temp: 20 °C"
    }
}