{
    "cas_no": "1672-58-8",
    "key_name": "4-(Formylamino)antipyrine",
    "cn_name": "4-甲酰氨基-1,2-二氢-1,5-二甲基-2-苯基-3H-吡唑-3-酮;4-甲酰氨基-2,3-二甲基-1-苯基-3-吡唑啉-5-酮;N-(2,3;",
    "alternate_name": "Formamide, <em>N</em>-(2,3-dihydro-1,5-dimethyl-3-oxo-2-phenyl-1<em>H</em>-pyrazol-4-yl)-;Formamide, <em>N</em>-antipyrinyl-;<em>N</em>-(2,3-Dihydro-1,5-dimethyl-3-oxo-2-phenyl-1<em>H</em>-pyrazol-4-yl)formamide;4-Formamidoantipyrine;<em>N</em>-Antipyrinylformamide;4-(Formylamino)antipyrine;NSC 60565",
    "duplicated_cas_no": "",
    "SMILES": "O=C1N(N(C)C(C)=C1NC=O)C2=CC=CC=C2",
    "meta_data": {
        "InChI": "InChI=1S/C12H13N3O2/c1-9-11(13-8-16)12(17)15(14(9)2)10-6-4-3-5-7-10/h3-8H,1-2H3,(H,13,16)",
        "InChIKey": null,
        "Canonical SMILES": "O=CNC=1C(=O)N(C=2C=CC=CC2)N(C1C)C",
        "Molecular Formula": "C<sub>12</sub>H<sub>13</sub>N<sub>3</sub>O<sub>2</sub>",
        "Molecular Mass": "231.25",
        "Melting Point": "188-190 °C"
    }
}