{
    "cas_no": "5123-55-7",
    "key_name": "<em>N</em>-Phthaloyl-(<em>S</em>)-phenylalanine",
    "cn_name": "N-邻苯二甲酰-L-苯丙氨酸;",
    "alternate_name": "2<em>H</em>-Isoindole-2-acetic acid, 1,3-dihydro-1,3-dioxo-α-(phenylmethyl)-, (α<em>S</em>)-;2<em>H</em>-Isoindole-2-acetic acid, 1,3-dihydro-1,3-dioxo-α-(phenylmethyl)-, (<em>S</em>)-;2-Isoindolineacetic acid, α-benzyl-1,3-dioxo-, (<em>S</em>)-(-)-;(α<em>S</em>)-1,3-Dihydro-1,3-dioxo-α-(phenylmethyl)-2<em>H</em>-isoindole-2-acetic acid;(<em>S</em>)-<em>N</em>-Phthaloylphenylalanine;<em>N</em>-Phthaloyl-<span class=\"text-smallcaps\">L</span>-phenylalanine;Phthaloyl-<span class=\"text-smallcaps\">L</span>-phenylalanine;<em>N</em>-Phthaloyl-(<em>S</em>)-phenylalanine;(<em>S</em>)-2-(1,3-Dihydro-1,3-dioxo-2<em>H</em>-isoindol-2-yl)-3-phenylpropanoic acid;<span class=\"text-smallcaps\">L</span>-<em>N</em>-Phthaloylphenylalanine;(2S)-2-(1,3-Dioxo-2,3-dihydro-1<em>H</em>-isoindol-2-yl)-3-phenylpropanoic acid;(2S)-2-(1,3-Dioxoisoindol-2-yl)-3-phenylpropanoic acid",
    "duplicated_cas_no": "",
    "SMILES": "[C@H](CC1=CC=CC=C1)(C(O)=O)N2C(=O)C=3C(C2=O)=CC=CC3",
    "meta_data": {
        "InChI": "InChI=1S/C17H13NO4/c19-15-12-8-4-5-9-13(12)16(20)18(15)14(17(21)22)10-11-6-2-1-3-7-11/h1-9,14H,10H2,(H,21,22)/t14-/m0/s1",
        "InChIKey": null,
        "Canonical SMILES": "O=C(O)C(N1C(=O)C=2C=CC=CC2C1=O)CC=3C=CC=CC3",
        "Molecular Formula": "C<sub>17</sub>H<sub>13</sub>NO<sub>4</sub>",
        "Molecular Mass": "295.29",
        "Melting Point": "183-184 °C",
        "Density": "1.358 g/cm³"
    }
}