{
    "cas_no": "1424-66-4",
    "key_name": "2-Chloro-4-(dimethylamino)benzaldehyde",
    "cn_name": null,
    "alternate_name": "Benzaldehyde, 2-chloro-4-(dimethylamino)-;2-Chloro-4-(dimethylamino)benzaldehyde;<em>o</em>-Chloro-<em>p</em>-dimethylaminobenzaldehyde;4-(Dimethylamino)-2-chlorobenzaldehyde;NSC 93918;2-Chloro-4-[<em>N</em>,<em>N</em>-bis(methyl)amino]benzaldehyde",
    "duplicated_cas_no": "",
    "SMILES": "N(C)(C)C1=CC(Cl)=C(C=O)C=C1",
    "meta_data": {
        "InChI": "InChI=1S/C9H10ClNO/c1-11(2)8-4-3-7(6-12)9(10)5-8/h3-6H,1-2H3",
        "InChIKey": null,
        "Canonical SMILES": "O=CC1=CC=C(C=C1Cl)N(C)C",
        "Molecular Formula": "C<sub>9</sub>H<sub>10</sub>ClNO",
        "Molecular Mass": "183.63",
        "Melting Point": "75-80 °C"
    }
}