{
    "cas_no": "100-21-0",
    "key_name": "Terephthalic acid",
    "cn_name": null,
    "alternate_name": "1,4-Benzenedicarboxylic acid;Terephthalic acid;<em>p</em>-Benzenedicarboxylic acid;<em>p</em>-Phthalic acid;WR 16262;<em>p</em>-Dicarboxybenzene;<em>p</em>-Carboxybenzoic acid;TPA;1,4-Dicarboxybenzene;4-Carboxybenzoic acid;NSC 36973;TA 33LP;QTA;Amoco TA 33;S-LOP;TPA (terephthalic acid);PTM 6633;LA 31;1,4-Phenylenedicarboxylic acid",
    "duplicated_cas_no": "211863-90-0;211863-92-2;2088100-81-4",
    "SMILES": "C(O)(=O)C1=CC=C(C(O)=O)C=C1",
    "meta_data": {
        "InChI": "InChI=1S/C8H6O4/c9-7(10)5-1-2-6(4-3-5)8(11)12/h1-4H,(H,9,10)(H,11,12)",
        "InChIKey": null,
        "Canonical SMILES": "O=C(O)C1=CC=C(C=C1)C(=O)O",
        "Molecular Formula": "C<sub>8</sub>H<sub>6</sub>O<sub>4</sub>",
        "Molecular Mass": "166.13",
        "Melting Point": "402 °C (sublm)",
        "Density": "1.51 g/cm³"
    }
}