{
    "cas_no": "635-22-3",
    "key_name": "4-Chloro-3-nitroaniline",
    "cn_name": "3-硝基-4-氯苯胺;4-氯-3-硝基苯胺;",
    "alternate_name": "Benzenamine, 4-chloro-3-nitro-;Aniline, 4-chloro-3-nitro-;4-Chloro-3-nitrobenzenamine;4-Chloro-3-nitroaniline;3-Nitro-4-chloroaniline;4-Amino-2-nitrochlorobenzene;NSC 37397;(4-Chloro-3-nitrophenyl)amine;2-Nitro-4-aminochlorobenzene",
    "duplicated_cas_no": "",
    "SMILES": "N(=O)(=O)C1=C(Cl)C=CC(N)=C1",
    "meta_data": {
        "InChI": "InChI=1S/C6H5ClN2O2/c7-5-2-1-4(8)3-6(5)9(10)11/h1-3H,8H2",
        "InChIKey": null,
        "Canonical SMILES": "O=N(=O)C1=CC(N)=CC=C1Cl",
        "Molecular Formula": "C<sub>6</sub>H<sub>5</sub>ClN<sub>2</sub>O<sub>2</sub>",
        "Molecular Mass": "172.57",
        "Melting Point": "103 °C"
    }
}