{
    "cas_no": "17337-13-2",
    "key_name": "2-Biphenyl isocyanate",
    "cn_name": null,
    "alternate_name": "1,1′-Biphenyl, 2-isocyanato-;Isocyanic acid, 2-biphenylyl ester;2-Isocyanato-1,1′-biphenyl;<em>o</em>-Biphenylyl isocyanate;2-Isocyanatobiphenyl;2-Biphenylyl isocyanate;2-Phenylphenyl isocyanate;2-Biphenyl isocyanate;NSC 8076;1-Isocyanato-2-phenylbenzene",
    "duplicated_cas_no": "",
    "SMILES": "N(=C=O)C1=C(C=CC=C1)C2=CC=CC=C2",
    "meta_data": {
        "InChI": "InChI=1S/C13H9NO/c15-10-14-13-9-5-4-8-12(13)11-6-2-1-3-7-11/h1-9H",
        "InChIKey": null,
        "Canonical SMILES": "O=C=NC=1C=CC=CC1C=2C=CC=CC2",
        "Molecular Formula": "C<sub>13</sub>H<sub>9</sub>NO",
        "Molecular Mass": "195.22",
        "Boiling Point": "100 °C @ Press: 0.5-1 Torr",
        "Melting Point": "56 °C"
    }
}