{
    "cas_no": "210580-75-9",
    "key_name": "1-[(2<em>S</em>)-2-Aminopropyl]-1<em>H</em>-indazol-6-ol",
    "cn_name": null,
    "alternate_name": "1<em>H</em>-Indazol-6-ol, 1-[(2<em>S</em>)-2-aminopropyl]-;1-[(2<em>S</em>)-2-Aminopropyl]-1<em>H</em>-indazol-6-ol;1-((<em>S</em>)-2-Aminopropyl)-1<em>H</em>-indazol-6-ol;1<em>H</em>-Indazol-6-ol 1-[(2S)-2-aminopropyl]-;1-[(2S)-2-Aminopropyl]-1<em>H</em>-indazol-6-ol",
    "duplicated_cas_no": "",
    "SMILES": "C([C@H](C)N)N1C=2C(C=N1)=CC=C(O)C2",
    "meta_data": {
        "InChI": "InChI=1S/C10H13N3O/c1-7(11)6-13-10-4-9(14)3-2-8(10)5-12-13/h2-5,7,14H,6,11H2,1H3/t7-/m0/s1",
        "InChIKey": null,
        "Canonical SMILES": "OC=1C=CC=2C=NN(C2C1)CC(N)C",
        "Molecular Formula": "C<sub>10</sub>H<sub>13</sub>N<sub>3</sub>O",
        "Molecular Mass": "191.23",
        "Melting Point": "170-172 °C"
    }
}