{
    "cas_no": "54395-52-7",
    "key_name": "5,5′-[(1-Methylethylidene)bis(4,1-phenyleneoxy)]bis[2-methyl-1<em>H</em>-isoindole-1,3(2<em>H</em>)-dione]",
    "cn_name": "2,2-双[4-(N-甲基酞酰亚胺-4-氧)苯基]丙烷;2,2-双[4-(N-甲基酞酰亚胺-4-氧)苯基]丙烷;",
    "alternate_name": "1<em>H</em>-Isoindole-1,3(2<em>H</em>)-dione, 5,5′-[(1-methylethylidene)bis(4,1-phenyleneoxy)]bis[2-methyl-;5,5′-[(1-Methylethylidene)bis(4,1-phenyleneoxy)]bis[2-methyl-1<em>H</em>-isoindole-1,3(2<em>H</em>)-dione];2,2-Bis[4-(3,4-dicarboxyphenoxy)phenyl]propane <em>N</em>,<em>N</em>′-bismethylimide;4,4′-Bisphenol A-bis-<em>N</em>-methylphthalimide;4,4′-Bisphenol A-bis-(<em>N</em>-methylphthalimide)",
    "duplicated_cas_no": "",
    "SMILES": "O=C1C=2C(C(=O)N1C)=CC=C(OC3=CC=C(C(C)(C)C4=CC=C(OC=5C=C6C(=CC5)C(=O)N(C)C6=O)C=C4)C=C3)C2",
    "meta_data": {
        "InChI": "InChI=1S/C33H26N2O6/c1-33(2,19-5-9-21(10-6-19)40-23-13-15-25-27(17-23)31(38)34(3)29(25)36)20-7-11-22(12-8-20)41-24-14-16-26-28(18-24)32(39)35(4)30(26)37/h5-18H,1-4H3",
        "InChIKey": null,
        "Canonical SMILES": "O=C1C2=CC=C(OC3=CC=C(C=C3)C(C4=CC=C(OC5=CC=C6C(=O)N(C(=O)C6=C5)C)C=C4)(C)C)C=C2C(=O)N1C",
        "Molecular Formula": "C<sub>33</sub>H<sub>26</sub>N<sub>2</sub>O<sub>6</sub>",
        "Molecular Mass": "546.57",
        "Melting Point": "146-148 °C"
    }
}