{
    "cas_no": "67-78-7",
    "key_name": "Triamcinolone diacetate",
    "cn_name": "曲安西龙双醋酸酯;",
    "alternate_name": "Pregna-1,4-diene-3,20-dione, 16,21-bis(acetyloxy)-9-fluoro-11,17-dihydroxy-, (11β,16α)-;Pregna-1,4-diene-3,20-dione, 9-fluoro-11β,16α,17,21-tetrahydroxy-, 16,21-diacetate;(11β,16α)-16,21-Bis(acetyloxy)-9-fluoro-11,17-dihydroxypregna-1,4-diene-3,20-dione;Aristocort diacetate forte;Aristocort diacetate parenteral;Aristocort Forte;16α,21-Diacetoxy-9α-fluoro-11β,17α-dihydroxy-1,4-pregnadiene-3,20-dione;Δ<sup>1</sup>-9α-Fluoro-16α-hydroxyhydrocortisone diacetate;9α-Fluoro-16α-hydroxyprednisolone 16,21-diacetate;9α-Fluoro-1,4-pregnadiene-11β,16α,17α,21-tetraol-3,20-dione 16,21-diacetate;9-Fluoro-11β,16α,17,21-tetrahydroxypregna-1,4-diene-3,20-dione 16,21-diacetate;Δ<sup>1</sup>-16α-Hydroxy-9α-fluorohydrocortisone diacetate;16α-Hydroxy-9α-fluoroprednisolone diacetate;Kenacourt;Orion;Triamcinolone diacetate;Triamcinolone 16,21-diacetate;Aristocort Parenterals;Polcortolon;8357RP;Tedarol;Triamolone 40;Aristocort Forte Parenteral;Aristocort Syrup;Tracilon;Cenacort;TAC-D;Kenacort diacetate Syrup;CINO 40",
    "duplicated_cas_no": "",
    "SMILES": "C[C@@]12[C@]([C@]3([C@](F)([C@@H](O)C1)[C@]4(C)C(CC3)=CC(=O)C=C4)[H])(C[C@@H](OC(C)=O)[C@@]2(C(COC(C)=O)=O)O)[H]",
    "meta_data": {
        "InChI": "InChI=1S/C25H31FO8/c1-13(27)33-12-20(31)25(32)21(34-14(2)28)10-18-17-6-5-15-9-16(29)7-8-22(15,3)24(17,26)19(30)11-23(18,25)4/h7-9,17-19,21,30,32H,5-6,10-12H2,1-4H3/t17-,18-,19-,21+,22-,23-,24-,25+/m0/s1",
        "InChIKey": null,
        "Canonical SMILES": "O=C1C=CC2(C(=C1)CCC3C4CC(OC(=O)C)C(O)(C(=O)COC(=O)C)C4(C)CC(O)C32F)C",
        "Molecular Formula": "C<sub>25</sub>H<sub>31</sub>FO<sub>8</sub>",
        "Molecular Mass": "478.51",
        "Melting Point": "235 °C"
    }
}