{
    "cas_no": "629-27-6",
    "key_name": "1-Iodooctane",
    "cn_name": "碘代正辛烷 [629-27-6];碘代正辛烷;1-碘辛烷;",
    "alternate_name": "Octane, 1-iodo-;1-Iodooctane;Octyl iodide;1-<em>n</em>-Octyl iodide;<em>n</em>-Octyl iodide;1-Octyl iodide;1-Iodo-<em>n</em>-octane",
    "duplicated_cas_no": "",
    "SMILES": "C(CCCC)CCCI",
    "meta_data": {
        "InChI": "InChI=1S/C8H17I/c1-2-3-4-5-6-7-8-9/h2-8H2,1H3",
        "InChIKey": null,
        "Canonical SMILES": "ICCCCCCCC",
        "Molecular Formula": "C<sub>8</sub>H<sub>17</sub>I",
        "Molecular Mass": "240.12",
        "Boiling Point": "225.5 °C",
        "Melting Point": "-45.7 °C",
        "Density": "1.33568 g/cm³ @ Temp: 15 °C"
    }
}