{
    "cas_no": "104704-09-8",
    "key_name": "4′-Methyl[2,2′-bipyridine]-4-carboxaldehyde",
    "cn_name": "4\"-甲基-2,2\"-联吡啶-4-甲醛;",
    "alternate_name": "[2,2′-Bipyridine]-4-carboxaldehyde, 4′-methyl-;4′-Methyl[2,2′-bipyridine]-4-carboxaldehyde;4-Methyl-2,2′-bipyridine-4′-carbaldehyde;4-Methyl-2,2′-bipyridine-4′-carboxaldehyde;4-Formyl-4′-methyl-2,2′-bipyridine;4-Carboxaldehyde-4′-methyl-2,2′-bipyridine;4′-Formyl-4-methyl-2,2′-bipyridyl;4-(4′-Methyl-2,2′-bipyridyl)carboxaldehyde;4′-Methyl-2,2′-bipyridyl-4-carboxaldehyde;4′-Dimethyl-2,2′-bipyridine-4-carboxaldehyde;4′-Methyl-2,2′-bipyridine-4-carbaldehyde;4′-Methyl-2,2′-bipyridine-4-carboxaldehyde;4-Carbaldehyde-4<sup>,</sup>-methyl-2,2′-bipyridyl;4-Methyl-4-carbonyl-2,2-bipyridine;2-(4-Methylpyridin-2-yl)pyridine-4-carbaldehyde",
    "duplicated_cas_no": "",
    "SMILES": "C(=O)C=1C=C(N=CC1)C2=CC(C)=CC=N2",
    "meta_data": {
        "InChI": "InChI=1S/C12H10N2O/c1-9-2-4-13-11(6-9)12-7-10(8-15)3-5-14-12/h2-8H,1H3",
        "InChIKey": null,
        "Canonical SMILES": "O=CC=1C=CN=C(C1)C=2N=CC=C(C2)C",
        "Molecular Formula": "C<sub>12</sub>H<sub>10</sub>N<sub>2</sub>O",
        "Molecular Mass": "198.22",
        "Melting Point": "130-131 °C"
    }
}