{
    "cas_no": "625-08-1",
    "key_name": "3-Hydroxyisovaleric acid",
    "cn_name": null,
    "alternate_name": "Butanoic acid, 3-hydroxy-3-methyl-;Butyric acid, 3-hydroxy-3-methyl-;3-Hydroxy-3-methylbutanoic acid;β-Hydroxyisovaleric acid;3-Hydroxyisovaleric acid;3-Hydroxy-3-methylbutyric acid;β-Hydroxy-β-methylbutyric acid;3-Methyl-3-hydroxybutyric acid",
    "duplicated_cas_no": "",
    "SMILES": "C(C(C)(C)O)C(O)=O",
    "meta_data": {
        "InChI": "InChI=1S/C5H10O3/c1-5(2,8)3-4(6)7/h8H,3H2,1-2H3,(H,6,7)",
        "InChIKey": null,
        "Canonical SMILES": "O=C(O)CC(O)(C)C",
        "Molecular Formula": "C<sub>5</sub>H<sub>10</sub>O<sub>3</sub>",
        "Molecular Mass": "118.13",
        "Boiling Point": "162 °C",
        "Melting Point": "&lt;-32 °C",
        "Density": "0.9384 g/cm³ @ Temp: 20 °C"
    }
}