{
    "cas_no": "16899-81-3",
    "key_name": "Ethanone, 1-(3,4-dihydroxyphenyl)-2-[(1-methylethyl)amino]-, hydrochloride (1:1)",
    "cn_name": null,
    "alternate_name": "Ethanone, 1-(3,4-dihydroxyphenyl)-2-[(1-methylethyl)amino]-, hydrochloride (1:1);Acetophenone, 3′,4′-dihydroxy-2-(isopropylamino)-, hydrochloride;Ethanone, 1-(3,4-dihydroxyphenyl)-2-[(1-methylethyl)amino]-, hydrochloride;U 12844A;3,4-Dihydroxy-α-(isopropylamino)acetophenone hydrochloride;3′,4′-Dihydroxy-α-(isopropylamino)acetophenone hydrochloride",
    "duplicated_cas_no": "",
    "SMILES": "C(CNC(C)C)(=O)C1=CC(O)=C(O)C=C1.Cl",
    "meta_data": {
        "InChI": "InChI=1S/C11H15NO3.ClH/c1-7(2)12-6-11(15)8-3-4-9(13)10(14)5-8;/h3-5,7,12-14H,6H2,1-2H3;1H",
        "InChIKey": null,
        "Canonical SMILES": "Cl.O=C(C1=CC=C(O)C(O)=C1)CNC(C)C",
        "Molecular Formula": "C<sub>11</sub>H<sub>15</sub>NO<sub>3</sub>.ClH",
        "Molecular Mass": "",
        "Melting Point": "239-242 °C (decomp)"
    }
}