{
    "cas_no": "613-80-9",
    "key_name": "2-Naphthyl ether",
    "cn_name": "2,2\"-二萘基醚;2,2ˊ-二萘醚;β,βˊ-二萘醚；2-萘醚;",
    "alternate_name": "Naphthalene, 2,2′-oxybis-;2-Naphthyl ether;2,2′-Oxybis[naphthalene];Di-β-naphthyl ether;2,2′-Dinaphthyl ether;Di(2-naphthyl) ether;2-Naphthalen-2-yloxynaphthalene",
    "duplicated_cas_no": "",
    "SMILES": "O(C1=CC2=C(C=C1)C=CC=C2)C3=CC4=C(C=C3)C=CC=C4",
    "meta_data": {
        "InChI": "InChI=1S/C20H14O/c1-3-7-17-13-19(11-9-15(17)5-1)21-20-12-10-16-6-2-4-8-18(16)14-20/h1-14H",
        "InChIKey": null,
        "Canonical SMILES": "O(C=1C=CC=2C=CC=CC2C1)C=3C=CC=4C=CC=CC4C3",
        "Molecular Formula": "C<sub>20</sub>H<sub>14</sub>O",
        "Molecular Mass": "270.32",
        "Melting Point": "105 °C"
    }
}