{
    "cas_no": "4994-16-5",
    "key_name": "4-Phenylcyclohexene",
    "cn_name": "4-苯基-1-环己烯;",
    "alternate_name": "Benzene, 3-cyclohexen-1-yl-;3-Cyclohexen-1-ylbenzene;4-Phenylcyclohexene;4-Phenyl-1-cyclohexene",
    "duplicated_cas_no": "",
    "SMILES": "C1(CCC=CC1)C2=CC=CC=C2",
    "meta_data": {
        "InChI": "InChI=1S/C12H14/c1-3-7-11(8-4-1)12-9-5-2-6-10-12/h1-5,7-8,12H,6,9-10H2",
        "InChIKey": null,
        "Canonical SMILES": "C=1C=CC(=CC1)C2CC=CCC2",
        "Molecular Formula": "C<sub>12</sub>H<sub>14</sub>",
        "Molecular Mass": "158.24",
        "Boiling Point": "98-105 °C @ Press: 11 Torr",
        "Density": "0.9715 g/cm³ @ Temp: 20 °C"
    }
}