{
    "cas_no": "5949-44-0",
    "key_name": "Testosterone, undecanoate",
    "cn_name": "十一酸睾丸素;十一酸睾酮;",
    "alternate_name": "Androst-4-en-3-one, 17-[(1-oxoundecyl)oxy]-, (17β)-;Testosterone, undecanoate;Undecanoic acid, ester with testosterone;(17β)-17-[(1-Oxoundecyl)oxy]androst-4-en-3-one;Testosterone undecylate;Andriol;Org 538;Undestor;Andriol Testocaps;Nebido;Testocaps;Rextoro;Jatenzo",
    "duplicated_cas_no": "",
    "SMILES": "C[C@@]12[C@@]3([C@]([C@]4([C@](C)(CC3)[C@@H](OC(CCCCCCCCCC)=O)CC4)[H])(CCC1=CC(=O)CC2)[H])[H]",
    "meta_data": {
        "InChI": "InChI=1S/C30H48O3/c1-4-5-6-7-8-9-10-11-12-28(32)33-27-16-15-25-24-14-13-22-21-23(31)17-19-29(22,2)26(24)18-20-30(25,27)3/h21,24-27H,4-20H2,1-3H3/t24-,25-,26-,27-,29-,30-/m0/s1",
        "InChIKey": null,
        "Canonical SMILES": "O=C(OC1CCC2C3CCC4=CC(=O)CCC4(C)C3CCC12C)CCCCCCCCCC",
        "Molecular Formula": "C<sub>30</sub>H<sub>48</sub>O<sub>3</sub>",
        "Molecular Mass": "456.70",
        "Melting Point": "45-47.5 °C"
    }
}