{
    "cas_no": "2049-70-9",
    "key_name": "1,3-Diethyl 2-ethyl-2-methylpropanedioate",
    "cn_name": null,
    "alternate_name": "Propanedioic acid, 2-ethyl-2-methyl-, 1,3-diethyl ester;Malonic acid, ethylmethyl-, diethyl ester;Propanedioic acid, ethylmethyl-, diethyl ester;1,3-Diethyl 2-ethyl-2-methylpropanedioate;Diethyl ethylmethylmalonate;Diethyl 2-ethyl-2-methylmalonate;Diethyl methylethylmalonate;2-Ethyl-2-methylmalonic acid diethyl ester",
    "duplicated_cas_no": "",
    "SMILES": "C(C(OCC)=O)(C(OCC)=O)(CC)C",
    "meta_data": {
        "InChI": "InChI=1S/C10H18O4/c1-5-10(4,8(11)13-6-2)9(12)14-7-3/h5-7H2,1-4H3",
        "InChIKey": null,
        "Canonical SMILES": "O=C(OCC)C(C(=O)OCC)(C)CC",
        "Molecular Formula": "C<sub>10</sub>H<sub>18</sub>O<sub>4</sub>",
        "Molecular Mass": "202.25",
        "Boiling Point": "73-76 °C @ Press: 5 Torr"
    }
}