{
    "cas_no": "52-66-4",
    "key_name": "(±)-Penicillamine",
    "cn_name": "DL-青霉胺;",
    "alternate_name": "Valine, 3-mercapto-;Valine, 3-mercapto-, <span class=\"text-smallcaps\">DL</span>-;<span class=\"text-smallcaps\">DL</span>-Valine, 3-mercapto-;3-Mercaptovaline;<em>dl</em>-DMC;<span class=\"text-smallcaps\">DL</span>-Penicillamine;<span class=\"text-smallcaps\">DL</span>-β-Mercaptovaline;(±)-Penicillamine;<span class=\"text-smallcaps\">DL</span>-3-Mercaptovaline;β,β-Dimethylcysteine;DMC;β-Mercaptovaline;Cysteine, 3,3-dimethyl-;β-Thiovaline;2-Amino-3-mercapto-3-methylbutyric acid;NSC 22880;NSC 44656;2-Azaniumyl-3-methyl-3-sulfanylbutanoate;2-Amino-3-methyl-3-sulfanylbutanoic acid;2-Amino-3-mercapto-3-methylbutanoic acid",
    "duplicated_cas_no": "5139-02-6",
    "SMILES": "C(C(C)(C)S)(C(O)=O)N",
    "meta_data": {
        "InChI": "InChI=1S/C5H11NO2S/c1-5(2,9)3(6)4(7)8/h3,9H,6H2,1-2H3,(H,7,8)",
        "InChIKey": null,
        "Canonical SMILES": "O=C(O)C(N)C(S)(C)C",
        "Molecular Formula": "C<sub>5</sub>H<sub>11</sub>NO<sub>2</sub>S",
        "Molecular Mass": "149.21",
        "Melting Point": "201 °C (decomp)"
    }
}