{
    "cas_no": "433-27-2",
    "key_name": "Trifluoroacetaldehyde ethyl hemiacetal",
    "cn_name": "三氟乙醛缩半乙醇;",
    "alternate_name": "Ethanol, 1-ethoxy-2,2,2-trifluoro-;1-Ethoxy-2,2,2-trifluoroethanol;Fluoral ethyl hemiacetal;Trifluoroacetaldehyde ethyl hemiacetal;NSC 65431;1-Ethoxy-2,2,2-trifluoroethan-1-ol",
    "duplicated_cas_no": "93884-90-3",
    "SMILES": "C(C(F)(F)F)(OCC)O",
    "meta_data": {
        "InChI": "InChI=1S/C4H7F3O2/c1-2-9-3(8)4(5,6)7/h3,8H,2H2,1H3",
        "InChIKey": null,
        "Canonical SMILES": "FC(F)(F)C(O)OCC",
        "Molecular Formula": "C<sub>4</sub>H<sub>7</sub>F<sub>3</sub>O<sub>2</sub>",
        "Molecular Mass": "144.09",
        "Boiling Point": "104-105 °C @ Press: 746 Torr",
        "Density": "1.241 g/cm³ @ Temp: 20 °C"
    }
}