{
    "cas_no": "33581-77-0",
    "key_name": "Trimethylsilyl [(trimethylsilyl)oxy]acetate",
    "cn_name": "三甲基甲硅烷氧基乙酸三甲基甲硅烷酯;",
    "alternate_name": "Acetic acid, 2-[(trimethylsilyl)oxy]-, trimethylsilyl ester;Acetic acid, (trimethylsiloxy)-, trimethylsilyl ester;Acetic acid, [(trimethylsilyl)oxy]-, trimethylsilyl ester;[(Trimethylsilyl)oxy]acetic acid trimethylsilyl ester;Trimethylsilyl [(trimethylsilyl)oxy]acetate;Trimethylsilyl trimethylsiloxyacetate;Trimethylsilyl 2-(trimethylsilyloxy)acetate",
    "duplicated_cas_no": "",
    "SMILES": "C(CO[Si](C)(C)C)(O[Si](C)(C)C)=O",
    "meta_data": {
        "InChI": "InChI=1S/C8H20O3Si2/c1-12(2,3)10-7-8(9)11-13(4,5)6/h7H2,1-6H3",
        "InChIKey": null,
        "Canonical SMILES": "O=C(O[Si](C)(C)C)CO[Si](C)(C)C",
        "Molecular Formula": "C<sub>8</sub>H<sub>20</sub>O<sub>3</sub>Si<sub>2</sub>",
        "Molecular Mass": "220.41",
        "Boiling Point": "82-83 °C @ Press: 15 Torr",
        "Density": "0.918 g/cm³"
    }
}