{
    "cas_no": "4619-66-3",
    "key_name": "Methyl 2-acetyl-3-oxobutanoate",
    "cn_name": null,
    "alternate_name": "Butanoic acid, 2-acetyl-3-oxo-, methyl ester;Acetoacetic acid, 2-acetyl-, methyl ester;Methyl 2-acetyl-3-oxobutanoate;Methyl diacetoacetate;Methyl diacetylacetate;Methyl 2-acetylacetoacetate;2-Acetyl-3-oxobutanoic acid methyl ester;2-Acetyl-3-oxo-butyric acid methyl ester",
    "duplicated_cas_no": "",
    "SMILES": "C(C(OC)=O)(C(C)=O)C(C)=O",
    "meta_data": {
        "InChI": "InChI=1S/C7H10O4/c1-4(8)6(5(2)9)7(10)11-3/h6H,1-3H3",
        "InChIKey": null,
        "Canonical SMILES": "O=C(OC)C(C(=O)C)C(=O)C",
        "Molecular Formula": "C<sub>7</sub>H<sub>10</sub>O<sub>4</sub>",
        "Molecular Mass": "158.15",
        "Boiling Point": "87-89 °C @ Press: 11 Torr"
    }
}