{
    "cas_no": "244768-32-9",
    "key_name": "4-[(4-Chloro-2-pyrimidinyl)amino]benzonitrile",
    "cn_name": null,
    "alternate_name": "Benzonitrile, 4-[(4-chloro-2-pyrimidinyl)amino]-;4-[(4-Chloro-2-pyrimidinyl)amino]benzonitrile",
    "duplicated_cas_no": "1238341-59-7",
    "SMILES": "N(C1=CC=C(C#N)C=C1)C=2N=C(Cl)C=CN2",
    "meta_data": {
        "InChI": "InChI=1S/C11H7ClN4/c12-10-5-6-14-11(16-10)15-9-3-1-8(7-13)2-4-9/h1-6H,(H,14,15,16)",
        "InChIKey": null,
        "Canonical SMILES": "N#CC1=CC=C(C=C1)NC2=NC=CC(Cl)=N2",
        "Molecular Formula": "C<sub>11</sub>H<sub>7</sub>ClN<sub>4</sub>",
        "Molecular Mass": "230.65",
        "Melting Point": "200.8-201.2 °C"
    }
}