{
    "cas_no": "67892-56-2",
    "key_name": "Dichlorodocosylmethylsilane",
    "cn_name": "二十二烷基甲基二氯化硅烷;",
    "alternate_name": "Silane, dichlorodocosylmethyl-;Dichlorodocosylmethylsilane",
    "duplicated_cas_no": "",
    "SMILES": "C(CCCCCCCCCCCCCCCCCCC)CC[Si](C)(Cl)Cl",
    "meta_data": {
        "InChI": "InChI=1S/C23H48Cl2Si/c1-3-4-5-6-7-8-9-10-11-12-13-14-15-16-17-18-19-20-21-22-23-26(2,24)25/h3-23H2,1-2H3",
        "InChIKey": null,
        "Canonical SMILES": "Cl[Si](Cl)(C)CCCCCCCCCCCCCCCCCCCCCC",
        "Molecular Formula": "C<sub>23</sub>H<sub>48</sub>Cl<sub>2</sub>Si",
        "Molecular Mass": "423.62",
        "Boiling Point": "218-220 °C @ Press: 0.5 Torr"
    }
}