{
    "cas_no": "27262-47-1",
    "key_name": "(-)-Bupivacaine",
    "cn_name": "左布比卡因;左旋布比卡因;1-丁基-N-(2,6-二甲基苯基)-哌啶-2-甲酰胺;",
    "alternate_name": "2-Piperidinecarboxamide, 1-butyl-<em>N</em>-(2,6-dimethylphenyl)-, (2<em>S</em>)-;2′,6′-Pipecoloxylidide, 1-butyl-, (-)-;2-Piperidinecarboxamide, 1-butyl-<em>N</em>-(2,6-dimethylphenyl)-, (<em>S</em>)-;(2<em>S</em>)-1-Butyl-<em>N</em>-(2,6-dimethylphenyl)-2-piperidinecarboxamide;(-)-Bupivacaine;<span class=\"text-smallcaps\">L</span>-(-)-Bupivacaine;(<em>S</em>)-Bupivacaine;(<em>S</em>)-(-)-Bupivacaine;Levobupivacaine;(-)-(<em>S</em>)-Bupivacaine;Chirocain;(2S)-1-Butyl-<em>N</em>-(2,6-dimethylphenyl)piperidine-2-carboxamide",
    "duplicated_cas_no": "41148-30-5",
    "SMILES": "C(NC1=C(C)C=CC=C1C)(=O)[C@H]2N(CCCC)CCCC2",
    "meta_data": {
        "InChI": "InChI=1S/C18H28N2O/c1-4-5-12-20-13-7-6-11-16(20)18(21)19-17-14(2)9-8-10-15(17)3/h8-10,16H,4-7,11-13H2,1-3H3,(H,19,21)/t16-/m0/s1",
        "InChIKey": null,
        "Canonical SMILES": "O=C(NC=1C(=CC=CC1C)C)C2N(CCCC)CCCC2",
        "Molecular Formula": "C<sub>18</sub>H<sub>28</sub>N<sub>2</sub>O",
        "Molecular Mass": "288.43",
        "Melting Point": "135-137 °C"
    }
}