{
    "cas_no": "623-58-5",
    "key_name": "Butanoic acid, 3-oxo-, sodium salt (1:1)",
    "cn_name": null,
    "alternate_name": "Butanoic acid, 3-oxo-, sodium salt (1:1);Acetoacetic acid, sodium salt;Butanoic acid, 3-oxo-, sodium salt;Sodium acetoacetate",
    "duplicated_cas_no": "",
    "SMILES": "C(C(C)=O)C(O)=O.[Na]",
    "meta_data": {
        "InChI": "InChI=1S/C4H6O3.Na/c1-3(5)2-4(6)7;/h2H2,1H3,(H,6,7);",
        "InChIKey": null,
        "Canonical SMILES": "[Na].O=C(O)CC(=O)C",
        "Molecular Formula": "C<sub>4</sub>H<sub>6</sub>O<sub>3</sub>.Na",
        "Molecular Mass": "",
        "Boiling Point": "52 °C @ Press: 5 Torr"
    }
}