{
    "cas_no": "2117-28-4",
    "key_name": "1,1′-Methylenebis[1,1,1-trimethylsilane]",
    "cn_name": "双(三甲基硅基)甲烷;",
    "alternate_name": "Silane, 1,1′-methylenebis[1,1,1-trimethyl-;2,4-Disilapentane, 2,2,4,4-tetramethyl-;Silane, methylenebis[trimethyl-;1,1′-Methylenebis[1,1,1-trimethylsilane];Bis(trimethylsilyl)methane;Methylenebis[trimethylsilane]",
    "duplicated_cas_no": "",
    "SMILES": "C([Si](C)(C)C)[Si](C)(C)C",
    "meta_data": {
        "InChI": "InChI=1S/C7H20Si2/c1-8(2,3)7-9(4,5)6/h7H2,1-6H3",
        "InChIKey": null,
        "Canonical SMILES": "C[Si](C)(C)C[Si](C)(C)C",
        "Molecular Formula": "C<sub>7</sub>H<sub>20</sub>Si<sub>2</sub>",
        "Molecular Mass": "160.40",
        "Boiling Point": "132-133 °C",
        "Melting Point": "-71 °C",
        "Density": "0.752 g/cm³"
    }
}