{
    "cas_no": "2610-11-9",
    "key_name": "Direct Red 81",
    "cn_name": "C.I.直接红81;直接耐晒红4B;",
    "alternate_name": "2-Naphthalenesulfonic acid, 7-(benzoylamino)-4-hydroxy-3-[2-[4-[2-(4-sulfophenyl)diazenyl]phenyl]diazenyl]-, sodium salt (1:2);Chlorantine Fast Red 5B;2-Naphthalenesulfonic acid, 7-(benzoylamino)-4-hydroxy-3-[[4-[(4-sulfophenyl)azo]phenyl]azo]-, disodium salt;C.I. Direct Red 81;C.I. 28160;Airedale Red KD;Aizen Primula Red 4BH;Amanil Fast Red 8BL;Belamine Fast Red 8BL;Benzanil Fast Red K;Bordeaux EMBL;Calcodur Red 8BL;Chloramine Fast Red K;Chloramine Fast Red 5BL;Chrome Leather Red 5B;Dialuminous Red 4B;Diaphtamine Light Red 4B;Diazine Fast Red 8BK;Diazo Light Red 8BD;Diazol Light Red 8B;Diphenyl Fast Red 5BL;Diphenyl Fast Red 5BLN;Direct Fast Red 5B;Direct Fast Red 8BL;Direct Light Red M 8BL;Direct Light Red 4B;Direct Light Red 8B;Direct Red 81;Durazol Red 2B;Durazol Red 2BP;Eliamina Red 8BL;Fastolite Red 8BL;Fastusol Red 4BA-CF;Fenaluz Red 4B;Helion Red 8B;Hispaluz Red 8BL;Paranol Fast Red 8BL;Pheno Fast Scarlet 9B;Pontamine Fast Red 8BLX;Pyrazol Fast Red 5BL;Pyrazol Fast Red 8BL;Pyrazoline Red 8BL;Saturn Red B;Sirius Red 4B;Sirius Red 4BA;Solantine Red 8BL;Solar Red B;Solius Red 4B;Sumilight Red 4B;Suprazo Red 4B;Suprexcel Red 8BL;Tertrodirect Fast Red 5B;Tetramine Fast Red 8B;Triantine Fast Red 4BN;Triantine Light Red 4BN;Direct Fast Red 2S;Amanil Fast Red 8BLW;Direct Lightfast Red 2S;Diphenyl Fast 5BL Supra I Red;Chlorantine Fast Red;Benzo Fast Red 8BL;C.I. Acid Red 248;Solamine Red 4B;Sirius Supra Red 4B;Intralite Red 5B;Pergasol Red 2B;Diphenyl Red 5B;Fabramine Red 8BL;Direct Lightfast Red 4BS;C.I. Direct Red 81 disodium salt;Isma Fast Red 8B;Direct Red 5B",
    "duplicated_cas_no": "12237-71-7;134092-10-7",
    "SMILES": "OC=1C2=C(C=C(S(=O)(=O)O)C1N=NC3=CC=C(N=NC4=CC=C(S(=O)(=O)O)C=C4)C=C3)C=C(NC(=O)C5=CC=CC=C5)C=C2.[Na]",
    "meta_data": {
        "InChI": "InChI=1S/C29H21N5O8S2.2Na/c35-28-25-15-12-23(30-29(36)18-4-2-1-3-5-18)16-19(25)17-26(44(40,41)42)27(28)34-33-21-8-6-20(7-9-21)31-32-22-10-13-24(14-11-22)43(37,38)39;;/h1-17,35H,(H,30,36)(H,37,38,39)(H,40,41,42);;",
        "InChIKey": null,
        "Canonical SMILES": "[Na].O=C(NC=1C=CC=2C(C1)=CC(=C(N=NC3=CC=C(N=NC4=CC=C(C=C4)S(=O)(=O)O)C=C3)C2O)S(=O)(=O)O)C=5C=CC=CC5",
        "Molecular Formula": "C<sub>29</sub>H<sub>21</sub>N<sub>5</sub>O<sub>8</sub>S<sub>2</sub>.2Na",
        "Molecular Mass": "",
        "Melting Point": "240 °C (decomp)"
    }
}