{
    "cas_no": "2859-67-8",
    "key_name": "3-Pyridinepropanol",
    "cn_name": "3-吡啶丙醇;",
    "alternate_name": "3-Pyridinepropanol;3-(3-Hydroxypropyl)pyridine;3-(3-Pyridyl)propanol;3-(3-Pyridyl)-1-propanol;3-(β-Pyridyl)propanol;3-(3-Pyridinyl)-1-propanol;NSC 66564;3-(Pyridin-3-yl)propanol",
    "duplicated_cas_no": "",
    "SMILES": "C(CCO)C=1C=CC=NC1",
    "meta_data": {
        "InChI": "InChI=1S/C8H11NO/c10-6-2-4-8-3-1-5-9-7-8/h1,3,5,7,10H,2,4,6H2",
        "InChIKey": null,
        "Canonical SMILES": "OCCCC=1C=NC=CC1",
        "Molecular Formula": "C<sub>8</sub>H<sub>11</sub>NO",
        "Molecular Mass": "137.18",
        "Boiling Point": "284 °C"
    }
}