{
    "cas_no": "2739-99-3",
    "key_name": "2-Piperidineacetic acid, ethyl ester",
    "cn_name": null,
    "alternate_name": "2-Piperidineacetic acid, ethyl ester;Ethyl 2-piperidineacetate;(±)-Ethyl 2-piperidineacetate;Ethyl 2-piperidinylacetate",
    "duplicated_cas_no": "81290-99-5",
    "SMILES": "C(C(OCC)=O)C1CCCCN1",
    "meta_data": {
        "InChI": "InChI=1S/C9H17NO2/c1-2-12-9(11)7-8-5-3-4-6-10-8/h8,10H,2-7H2,1H3",
        "InChIKey": null,
        "Canonical SMILES": "O=C(OCC)CC1NCCCC1",
        "Molecular Formula": "C<sub>9</sub>H<sub>17</sub>NO<sub>2</sub>",
        "Molecular Mass": "171.24",
        "Boiling Point": "105 °C @ Press: 14 Torr",
        "Melting Point": "125 °C"
    }
}