{
    "cas_no": "534-17-8",
    "key_name": "Cesium carbonate",
    "cn_name": "碳酸铯;",
    "alternate_name": "Carbonic acid, cesium salt (1:2);Carbonic acid, dicesium salt;Cesium carbonate (Cs<sub>2</sub>CO<sub>3</sub>);Dicesium carbonate;Cesium carbonate;Caesium carbonate",
    "duplicated_cas_no": "1374229-42-1",
    "SMILES": "C(=O)(O)O.[Cs]",
    "meta_data": {
        "InChI": "InChI=1S/CH2O3.2Cs/c2-1(3)4;;/h(H2,2,3,4);;",
        "InChIKey": null,
        "Canonical SMILES": "[Cs].O=C(O)O",
        "Molecular Formula": "CH<sub>2</sub>O<sub>3</sub>.2Cs",
        "Molecular Mass": "",
        "Melting Point": "794 °C"
    }
}