{
    "cas_no": "75844-69-8",
    "key_name": "1,1-Dimethylethyl 1-piperidinecarboxylate",
    "cn_name": "1-Boc-哌啶;N-叔丁氧羰基哌啶;",
    "alternate_name": "1-Piperidinecarboxylic acid, 1,1-dimethylethyl ester;1,1-Dimethylethyl 1-piperidinecarboxylate;<em>tert</em>-Butyl 1-piperidinecarboxylate;Piperidine-1-carboxylic acid tert-butyl ester;1-(<em>tert</em>-Butoxycarbonyl)piperidine;<em>N</em>-(<em>tert</em>-Butoxycarbonyl)piperidine;Boc-piperidine;1-Boc-Piperidine",
    "duplicated_cas_no": "",
    "SMILES": "C(OC(C)(C)C)(=O)N1CCCCC1",
    "meta_data": {
        "InChI": "InChI=1S/C10H19NO2/c1-10(2,3)13-9(12)11-7-5-4-6-8-11/h4-8H2,1-3H3",
        "InChIKey": null,
        "Canonical SMILES": "O=C(OC(C)(C)C)N1CCCCC1",
        "Molecular Formula": "C<sub>10</sub>H<sub>19</sub>NO<sub>2</sub>",
        "Molecular Mass": "185.26",
        "Boiling Point": "110-120 °C @ Press: 2 Torr"
    }
}