{
    "cas_no": "4942-47-6",
    "key_name": "1-Adamantaneacetic acid",
    "cn_name": "1-金刚烷乙酸;",
    "alternate_name": "Tricyclo[3.3.1.1<sup>3,7</sup>]decane-1-acetic acid;1-Adamantaneacetic acid;2-(1-Adamantyl)acetic acid;α-(1-Adamantyl)acetic acid;1-(Carboxymethyl)adamantane;1-Adamantylacetic acid;Adamantylacetic acid;(Adamantan-1-yl)acetic acid;NSC 310162;(Tricyclo[3.3.1.1<sup>3,7</sup>]dec-1-yl)acetic acid;2-(Adamantan-1-yl)acetic acid",
    "duplicated_cas_no": "2882099-57-0",
    "SMILES": "C(C(O)=O)C12CC3CC(C1)CC(C2)C3",
    "meta_data": {
        "InChI": "InChI=1S/C12H18O2/c13-11(14)7-12-4-8-1-9(5-12)3-10(2-8)6-12/h8-10H,1-7H2,(H,13,14)",
        "InChIKey": null,
        "Canonical SMILES": "O=C(O)CC12CC3CC(CC(C3)C1)C2",
        "Molecular Formula": "C<sub>12</sub>H<sub>18</sub>O<sub>2</sub>",
        "Molecular Mass": "194.27",
        "Melting Point": "133 °C"
    }
}