{
    "cas_no": "844891-04-9",
    "key_name": "1,3,5-Trimethyl-4-(4,4,5,5-tetramethyl-1,3,2-dioxaborolan-2-yl)-1<em>H</em>-pyrazole",
    "cn_name": "1,3,5-三甲基-1H-吡唑-4-硼酸频哪醇酯; 1,3,5-三甲基-4-(4,4,5,5-四甲基-1,3,2-二氧杂戊硼烷-2-基)-1H-吡唑;",
    "alternate_name": "1<em>H</em>-Pyrazole, 1,3,5-trimethyl-4-(4,4,5,5-tetramethyl-1,3,2-dioxaborolan-2-yl)-;1,3,5-Trimethyl-4-(4,4,5,5-tetramethyl-1,3,2-dioxaborolan-2-yl)-1<em>H</em>-pyrazole;(1,3,5-Trimethyl-1<em>H</em>-pyrazol-4-yl)boronic acid pinacol ester;2-(1,3,5-Trimethylpyrazol-4-yl)-4,4,5,5-tetramethyl-1,3,2-dioxaborolane;1,3,5-Trimethyl-4-(4,4,5,5-tetramethyl-1,3,2-dioxaborolan-2-yl)pyrazole;1,3,5-Trimethyl-4-(tetramethyl-1,3,2-dioxaborolan-2-yl)-1<em>H</em>-pyrazole;1,3,5-Trimethyl-1<em>H</em>-pyrazole-4-boronic acid pinacol ester",
    "duplicated_cas_no": "",
    "SMILES": "CC1=C(C(C)=NN1C)B2OC(C)(C)C(C)(C)O2",
    "meta_data": {
        "InChI": "InChI=1S/C12H21BN2O2/c1-8-10(9(2)15(7)14-8)13-16-11(3,4)12(5,6)17-13/h1-7H3",
        "InChIKey": null,
        "Canonical SMILES": "N1=C(C(B2OC(C)(C)C(O2)(C)C)=C(N1C)C)C",
        "Molecular Formula": "C<sub>12</sub>H<sub>21</sub>BN<sub>2</sub>O<sub>2</sub>",
        "Molecular Mass": "236.12",
        "Melting Point": "98-100 °C"
    }
}