{
    "cas_no": "97-08-5",
    "key_name": "4-Chloro-3-nitrobenzenesulfonyl chloride",
    "cn_name": "4-氯-3-硝基苯磺酰氯;3-硝基-4-氯苯磺酰氯;",
    "alternate_name": "Benzenesulfonyl chloride, 4-chloro-3-nitro-;4-Chloro-3-nitrobenzenesulfonyl chloride;Yellow Sulfon Chloride;3-Nitro-4-chlorobenzenesulfonyl chloride;4-Chloro-3-nitrophenylsulfonyl chloride;4-Chloro-5-nitrobenzenesulfonyl chloride;4-Chloro-3-nitrobenzene-1-sulfonyl chloride",
    "duplicated_cas_no": "",
    "SMILES": "N(=O)(=O)C1=CC(S(Cl)(=O)=O)=CC=C1Cl",
    "meta_data": {
        "InChI": "InChI=1S/C6H3Cl2NO4S/c7-5-2-1-4(14(8,12)13)3-6(5)9(10)11/h1-3H",
        "InChIKey": null,
        "Canonical SMILES": "O=N(=O)C1=CC(=CC=C1Cl)S(=O)(=O)Cl",
        "Molecular Formula": "C<sub>6</sub>H<sub>3</sub>Cl<sub>2</sub>NO<sub>4</sub>S",
        "Molecular Mass": "256.06",
        "Melting Point": "58-60 °C"
    }
}