{
    "cas_no": "3343-28-0",
    "key_name": "<em>N</em>-Phthaloyl-<span class=\"text-smallcaps\">DL</span>-glutamic anhydride",
    "cn_name": "2-(四氢-2,6-二氧代吡喃-3-基)异吲哚-1,3(2H)二酮;N-(四氢-2,6-二氧代吡喃-3-基)邻苯二甲酰亚胺;",
    "alternate_name": "1<em>H</em>-Isoindole-1,3(2<em>H</em>)-dione, 2-(tetrahydro-2,6-dioxo-2<em>H</em>-pyran-3-yl)-;Glutaric anhydride, 2-phthalimido-;2-(Tetrahydro-2,6-dioxo-2<em>H</em>-pyran-3-yl)-1<em>H</em>-isoindole-1,3(2<em>H</em>)-dione;α-Phthalimidoglutaric anhydride;4-Phthalimidoglutaric anhydride;2-Phthalimidoglutaric anhydride;<em>N</em>-Phthaloyl-<span class=\"text-smallcaps\">DL</span>-glutamic anhydride;2-(2,6-Dioxotetrahydropyran-3-yl)isoindol-1,3-dione;NSC 120846;NSC 9986;2-(2,6-Dioxo-tetrahydro-2<em>H</em>-pyran-3-yl)isoindoline-1,3-dione;2-(2,6-Dioxo-tetrahydro-pyran-3-yl)-isoindole-1,3-dione;2-(2,6-Dioxooxan-3-yl)isoindole-1,3-dione;2-(2,6-Dioxooxan-3-yl)-2,3-dihydro-1<em>H</em>-isoindole-1,3-dione",
    "duplicated_cas_no": "3085-92-5;53602-85-0",
    "SMILES": "O=C1N(C(=O)C=2C1=CC=CC2)C3C(=O)OC(=O)CC3",
    "meta_data": {
        "InChI": "InChI=1S/C13H9NO5/c15-10-6-5-9(13(18)19-10)14-11(16)7-3-1-2-4-8(7)12(14)17/h1-4,9H,5-6H2",
        "InChIKey": null,
        "Canonical SMILES": "O=C1OC(=O)C(N2C(=O)C=3C=CC=CC3C2=O)CC1",
        "Molecular Formula": "C<sub>13</sub>H<sub>9</sub>NO<sub>5</sub>",
        "Molecular Mass": "259.21",
        "Melting Point": "195-196 °C (decomp)"
    }
}