{
    "cas_no": "1738-78-9",
    "key_name": "<span class=\"text-smallcaps\">L</span>-Phenylalanine, phenylmethyl ester, 4-methylbenzenesulfonate (1:1)",
    "cn_name": "L-苯丙氨酸苄酯对甲苯磺酸盐;",
    "alternate_name": "<span class=\"text-smallcaps\">L</span>-Phenylalanine, phenylmethyl ester, 4-methylbenzenesulfonate (1:1);Alanine, phenyl-, benzyl ester, <em>p</em>-toluenesulfonate, <span class=\"text-smallcaps\">L</span>-;<span class=\"text-smallcaps\">L</span>-Phenylalanine, phenylmethyl ester, 4-methylbenzenesulfonate;Alanine, phenyl-, benzyl ester, <em>p</em>-toluenesulfonate;<span class=\"text-smallcaps\">L</span>-Phenylalanine benzyl ester <em>p</em>-toluenesulfonate;<span class=\"text-smallcaps\">L</span>-Phenylalanine benzyl ester tosylate;Benzyl <span class=\"text-smallcaps\">L</span>-phenylalaninate <em>p</em>-toluenesulfonate;<span class=\"text-smallcaps\">L</span>-Phenylalanine benzyl ester <em>p</em>-toluenesulfonic acid salt;Benzyl <span class=\"text-smallcaps\">L</span>-phenylalaninate tosylate;3-Phenyl-<span class=\"text-smallcaps\">L</span>-alanine benzyl ester 4-toluenesulphonate",
    "duplicated_cas_no": "",
    "SMILES": "C([C@@H](C(OCC1=CC=CC=C1)=O)N)C2=CC=CC=C2.S(=O)(=O)(O)C1=CC=C(C)C=C1",
    "meta_data": {
        "InChI": "InChI=1S/C16H17NO2.C7H8O3S/c17-15(11-13-7-3-1-4-8-13)16(18)19-12-14-9-5-2-6-10-14;1-6-2-4-7(5-3-6)11(8,9)10/h1-10,15H,11-12,17H2;2-5H,1H3,(H,8,9,10)/t15-;/m0./s1",
        "InChIKey": null,
        "Canonical SMILES": "O=C(OCC=1C=CC=CC1)C(N)CC=2C=CC=CC2.O=S(=O)(O)C1=CC=C(C=C1)C",
        "Molecular Formula": "C<sub>16</sub>H<sub>17</sub>NO<sub>2</sub>.C<sub>7</sub>H<sub>8</sub>O<sub>3</sub>S",
        "Molecular Mass": "",
        "Melting Point": "170.5-171.5 °C"
    }
}