{
    "cas_no": "99-61-6",
    "key_name": "3-Nitrobenzaldehyde",
    "cn_name": "间硝基苯甲醛;",
    "alternate_name": "Benzaldehyde, 3-nitro-;Benzaldehyde, <em>m</em>-nitro-;3-Nitrobenzaldehyde;<em>m</em>-Nitrobenzaldehyde;5-Nitrobenzaldehyde;NSC 5504;3-Nitrophenylcarboxaldehyde;3-Nitrobenzenecarboxaldehyde",
    "duplicated_cas_no": "",
    "SMILES": "N(=O)(=O)C1=CC(C=O)=CC=C1",
    "meta_data": {
        "InChI": "InChI=1S/C7H5NO3/c9-5-6-2-1-3-7(4-6)8(10)11/h1-5H",
        "InChIKey": null,
        "Canonical SMILES": "O=CC1=CC=CC(=C1)N(=O)=O",
        "Molecular Formula": "C<sub>7</sub>H<sub>5</sub>NO<sub>3</sub>",
        "Molecular Mass": "151.12",
        "Boiling Point": "164 °C",
        "Melting Point": "58.5 °C"
    }
}