{
    "cas_no": "19550-07-3",
    "key_name": "2,5-Dimethyl-3-hexanol",
    "cn_name": "2,5-二甲基-3-己醇;",
    "alternate_name": "3-Hexanol, 2,5-dimethyl-;2,5-Dimethyl-3-hexanol;2,5-Dimethyl-3-hexyl alcohol;NSC 95420",
    "duplicated_cas_no": "111675-54-8",
    "SMILES": "C(CC(C)C)(C(C)C)O",
    "meta_data": {
        "InChI": "InChI=1S/C8H18O/c1-6(2)5-8(9)7(3)4/h6-9H,5H2,1-4H3",
        "InChIKey": null,
        "Canonical SMILES": "OC(CC(C)C)C(C)C",
        "Molecular Formula": "C<sub>8</sub>H<sub>18</sub>O",
        "Molecular Mass": "130.23",
        "Boiling Point": "157.5 °C",
        "Density": "0.8212 g/cm³ @ Temp: 20 °C"
    }
}