{
    "cas_no": "40807-61-2",
    "key_name": "4-Hydroxy-4-phenylpiperidine",
    "cn_name": null,
    "alternate_name": "4-Piperidinol, 4-phenyl-;4-Phenyl-4-piperidinol;4-Hydroxy-4-phenylpiperidine;4-Phenyl-4-hydroxypiperidine;NSC 71658;[1,4′-Bipiperidin]-4′-ol;4-Phenylpiperidine-4-ol",
    "duplicated_cas_no": "387347-00-4",
    "SMILES": "OC1(CCNCC1)C2=CC=CC=C2",
    "meta_data": {
        "InChI": "InChI=1S/C11H15NO/c13-11(6-8-12-9-7-11)10-4-2-1-3-5-10/h1-5,12-13H,6-9H2",
        "InChIKey": null,
        "Canonical SMILES": "OC1(C=2C=CC=CC2)CCNCC1",
        "Molecular Formula": "C<sub>11</sub>H<sub>15</sub>NO",
        "Molecular Mass": "177.24",
        "Melting Point": "159-160 °C"
    }
}