{
    "cas_no": "14464-46-1",
    "key_name": "Cristobalite",
    "cn_name": null,
    "alternate_name": "Cristobalite (SiO<sub>2</sub>);Cristobalite;Crystobalite;α-Cristobalite;Crystoballite;Cristoballite;α-Crystobalite;W 006;Metacristobalite;43-63C;Crysvarl;WGL 300;Sibelco B 0012;Sibelite M 6000;Sibelite M 4000;Sibelite M 3000;SF 4000;Silbond 006MST;Belcron B 6000;Silbond 3000MST;Sihelco B 2500;XPF 6;M 72;Sicron SF 4000;Sibelite M 0010;Sibelite M 0072;Silbond 4000AST;BF 07;BF 115;Sibelite M 8000;Sibelite M 06;Sibelite M 72",
    "duplicated_cas_no": "105269-70-3;1317-48-2",
    "SMILES": "[Si](=O)=O",
    "meta_data": {
        "InChI": "InChI=1S/O2Si/c1-3-2",
        "InChIKey": null,
        "Canonical SMILES": "O=[Si]=O",
        "Molecular Formula": "O<sub>2</sub>Si",
        "Molecular Mass": "60.08",
        "Boiling Point": "2230 °C",
        "Melting Point": "1713 °C",
        "Density": "2.3 g/cm³"
    }
}