{
    "cas_no": "13010-47-4",
    "key_name": "Lomustine",
    "cn_name": "洛莫司汀;环己亚硝脲;1-(2-氯乙烯)-3-环已基-1-亚硝基脲;",
    "alternate_name": "Urea, <em>N</em>-(2-chloroethyl)-<em>N</em>′-cyclohexyl-<em>N</em>-nitroso-;Urea, 1-(2-chloroethyl)-3-cyclohexyl-1-nitroso-;<em>N</em>-(2-Chloroethyl)-<em>N</em>′-cyclohexyl-<em>N</em>-nitrosourea;3-Cyclohexyl-1-(2-chloroethyl)-1-nitrosourea;CCNU;1-(2-Chloroethyl)-3-cyclohexyl-1-nitrosourea;Lomustine;NSC 79037;1-(2-Chloroethyl)-3-cyclohexylnitrosourea;ICIG 1109;Belustine;1-(2-Chloroethyl)-1-nitroso-3-cyclohexylurea;Lomustin;CeeNU;CiNu;Chloroethylcyclohexylnitrosourea;SRI 2200;Cecenu;NCI C04740;RB 1509;Lustine;Moostine;Lomtin;Gleostine;MeSH ID: D008130",
    "duplicated_cas_no": "",
    "SMILES": "N(C(N(CCCl)N=O)=O)C1CCCCC1",
    "meta_data": {
        "InChI": "InChI=1S/C9H16ClN3O2/c10-6-7-13(12-15)9(14)11-8-4-2-1-3-5-8/h8H,1-7H2,(H,11,14)",
        "InChIKey": null,
        "Canonical SMILES": "O=NN(C(=O)NC1CCCCC1)CCCl",
        "Molecular Formula": "C<sub>9</sub>H<sub>16</sub>ClN<sub>3</sub>O<sub>2</sub>",
        "Molecular Mass": "233.70",
        "Melting Point": "~89 °C (approx)"
    }
}