{
    "cas_no": "344-20-7",
    "key_name": "2,6-Dibromo-4-fluorophenol",
    "cn_name": null,
    "alternate_name": "Phenol, 2,6-dibromo-4-fluoro-;2,6-Dibromo-4-fluorophenol;4-Fluoro-2,6-dibromophenol;NSC 190640",
    "duplicated_cas_no": "",
    "SMILES": "OC1=C(Br)C=C(F)C=C1Br",
    "meta_data": {
        "InChI": "InChI=1S/C6H3Br2FO/c7-4-1-3(9)2-5(8)6(4)10/h1-2,10H",
        "InChIKey": null,
        "Canonical SMILES": "FC=1C=C(Br)C(O)=C(Br)C1",
        "Molecular Formula": "C<sub>6</sub>H<sub>3</sub>Br<sub>2</sub>FO",
        "Molecular Mass": "269.89",
        "Melting Point": "56 °C"
    }
}