{
    "cas_no": "6313-54-8",
    "key_name": "2-Chloroisonicotinic acid",
    "cn_name": "2-氯异烟酸;",
    "alternate_name": "4-Pyridinecarboxylic acid, 2-chloro-;Isonicotinic acid, 2-chloro-;2-Chloro-4-pyridinecarboxylic acid;2-Chloroisonicotinic acid;2-Chloropyridine-4-carboxylic acid;NSC 40139;6-Chloroisonicotinic acid",
    "duplicated_cas_no": "",
    "SMILES": "C(O)(=O)C=1C=C(Cl)N=CC1",
    "meta_data": {
        "InChI": "InChI=1S/C6H4ClNO2/c7-5-3-4(6(9)10)1-2-8-5/h1-3H,(H,9,10)",
        "InChIKey": null,
        "Canonical SMILES": "O=C(O)C=1C=CN=C(Cl)C1",
        "Molecular Formula": "C<sub>6</sub>H<sub>4</sub>ClNO<sub>2</sub>",
        "Molecular Mass": "157.55",
        "Melting Point": "245 °C"
    }
}