{
    "cas_no": "30934-97-5",
    "key_name": "2,2-Dimethoxyethanol",
    "cn_name": "羟基乙醛二甲基缩醛;乙醇醛缩二乙醇;2,2-二甲氧基乙醇;羟基乙醛二甲基缩醛,98%;",
    "alternate_name": "Ethanol, 2,2-dimethoxy-;Glycolaldehyde, dimethyl acetal;2,2-Dimethoxyethanol;Hydroxyacetaldehyde dimethyl acetal;2,2-Dimethoxyethan-1-ol",
    "duplicated_cas_no": "",
    "SMILES": "C(CO)(OC)OC",
    "meta_data": {
        "InChI": "InChI=1S/C4H10O3/c1-6-4(3-5)7-2/h4-5H,3H2,1-2H3",
        "InChIKey": null,
        "Canonical SMILES": "OCC(OC)OC",
        "Molecular Formula": "C<sub>4</sub>H<sub>10</sub>O<sub>3</sub>",
        "Molecular Mass": "106.12",
        "Boiling Point": "58-60 °C @ Press: 12 Torr"
    }
}