{
    "cas_no": "661-95-0",
    "key_name": "1,2-Dibromo-1,1,2,3,3,3-hexafluoropropane",
    "cn_name": "1,2-二溴六氟丙烷;",
    "alternate_name": "Propane, 1,2-dibromo-1,1,2,3,3,3-hexafluoro-;Propane, 1,2-dibromohexafluoro-;1,2-Dibromo-1,1,2,3,3,3-hexafluoropropane;1,2-Dibromohexafluoropropane;1,2-Dibromoperfluoropropane;R 216B2",
    "duplicated_cas_no": "121163-90-4",
    "SMILES": "C(C(Br)(F)F)(C(F)(F)F)(Br)F",
    "meta_data": {
        "InChI": "InChI=1S/C3Br2F6/c4-1(6,2(5,7)8)3(9,10)11",
        "InChIKey": null,
        "Canonical SMILES": "FC(F)(F)C(F)(Br)C(F)(F)Br",
        "Molecular Formula": "C<sub>3</sub>Br<sub>2</sub>F<sub>6</sub>",
        "Molecular Mass": "309.83",
        "Boiling Point": "72-73 °C",
        "Melting Point": "70-72 °C",
        "Density": "2.1693 g/cm³ @ Temp: 20 °C"
    }
}