{
    "cas_no": "831-91-4",
    "key_name": "Benzyl phenyl sulfide",
    "cn_name": "苄基苯硫酚;",
    "alternate_name": "Benzene, [(phenylmethyl)thio]-;Sulfide, benzyl phenyl;[(Phenylmethyl)thio]benzene;Benzyl phenyl sulfide;Phenyl benzyl sulfide;((Benzyl)thio)benzene;NSC 56472;Benzyl phenyl thioether;[(Phenylthio)methyl]benzene;(Benzylsulfanyl)benzene;Benzyl(phenyl)sulfane",
    "duplicated_cas_no": "",
    "SMILES": "C(SC1=CC=CC=C1)C2=CC=CC=C2",
    "meta_data": {
        "InChI": "InChI=1S/C13H12S/c1-3-7-12(8-4-1)11-14-13-9-5-2-6-10-13/h1-10H,11H2",
        "InChIKey": null,
        "Canonical SMILES": "S(C=1C=CC=CC1)CC=2C=CC=CC2",
        "Molecular Formula": "C<sub>13</sub>H<sub>12</sub>S",
        "Molecular Mass": "200.30",
        "Boiling Point": "197 °C @ Press: 27 Torr",
        "Melting Point": "43.5 °C"
    }
}