{
    "cas_no": "17804-49-8",
    "key_name": "C.I. Reactive Red 2",
    "cn_name": null,
    "alternate_name": "2,7-Naphthalenedisulfonic acid, 5-[(4,6-dichloro-1,3,5-triazin-2-yl)amino]-4-hydroxy-3-(2-phenyldiazenyl)-, sodium salt (1:2);2,7-Naphthalenedisulfonic acid, 5-[(4,6-dichloro-<em>s</em>-triazin-2-yl)amino]-4-hydroxy-3-(phenylazo)-, disodium salt;2,7-Naphthalenedisulfonic acid, 5-[(4,6-dichloro-1,3,5-triazin-2-yl)amino]-4-hydroxy-3-(phenylazo)-, disodium salt;5-(4,6-Dichloro-<em>s</em>-triazinyl-2-amino)-4-hydroxy-3-(phenylazo)-2,7-naphthalenedisulfonic acid disodium salt;Reactive Brilliant Red 5SKh;Brilliant Red 5SKh;C.I. Reactive Red 2;Mikacion Brilliant Red 5BS;Procion Brilliant Red M 5B;Procion Brilliant Red 5BS;Procion Red MX 5B;Procion Brilliant Red MX 5B;Chemictive Brilliant Red 5B;Ostazin Brilliant Red S 5B;Orbaktiv Brilliant Red M 5B;Procion Red 5CX;Reactive Red 5SKh;Reactive Red 2;Ostazin Red S 5B;Reactive Red B 5A;Reactive Brilliant Red X 3B;Reactive Red X 3B;Reactive Bright Red X 3B;Procion Red M 5B;Reactofix Brilliant Red M 5B;Reactive Brilliant Red (Chinese);Basilen Red M 5B;Intracron Red C 5B;Procion Red 5MX;Brilliant Red X 3B;Red M 5B;Helaktyn Red F 5B;Reactive Brilliant Red;Reactive Red M 5B;C.I. 18200;Procion Brilliant Red 5B;Reactive Brilliant Red MX 5B;Reactofix Red M 5B;Remazol brilliant red;Remazol Red 5BS;Orco Reactive Red MX 5B",
    "duplicated_cas_no": "11100-36-0;12226-03-8;12627-09-7;39361-94-9;56646-11-8;58517-07-0;74565-18-7;80147-49-5;95328-60-2;104982-30-1;113496-64-3;139074-70-7;1345690-43-8",
    "SMILES": "N(C=1C2=C(C=C(S(=O)(=O)O)C(N=NC3=CC=CC=C3)=C2O)C=C(S(=O)(=O)O)C1)C=4N=C(Cl)N=C(Cl)N4.[Na]",
    "meta_data": {
        "InChI": "InChI=1S/C19H12Cl2N6O7S2.2Na/c20-17-23-18(21)25-19(24-17)22-12-8-11(35(29,30)31)6-9-7-13(36(32,33)34)15(16(28)14(9)12)27-26-10-4-2-1-3-5-10;;/h1-8,28H,(H,29,30,31)(H,32,33,34)(H,22,23,24,25);;",
        "InChIKey": null,
        "Canonical SMILES": "[Na].O=S(=O)(O)C1=CC=2C=C(C(N=NC=3C=CC=CC3)=C(O)C2C(=C1)NC=4N=C(Cl)N=C(Cl)N4)S(=O)(=O)O",
        "Molecular Formula": "C<sub>19</sub>H<sub>12</sub>Cl<sub>2</sub>N<sub>6</sub>O<sub>7</sub>S<sub>2</sub>.2Na",
        "Molecular Mass": "",
        "Melting Point": "&gt;550 °C"
    }
}