{
    "cas_no": "4376-18-5",
    "key_name": "Monomethyl phthalate",
    "cn_name": "酞酸氢甲酯;邻苯二甲酸单甲酯;",
    "alternate_name": "1,2-Benzenedicarboxylic acid, 1-methyl ester;Phthalic acid, monomethyl ester;1,2-Benzenedicarboxylic acid, monomethyl ester;Phthalic acid, methyl ester;D 3 (ester);Monomethyl phthalate;Methyl phthalate;D 3;<em>o</em>-(Methoxycarbonyl)benzoic acid;Methyl hydrogen phthalate;2-(Methoxycarbonyl)benzoic acid;NSC 8281;Methyl 2-carboxybenzoate;2-(1-Methoxycarbonyl)benzoic acid",
    "duplicated_cas_no": "",
    "SMILES": "C(OC)(=O)C1=C(C(O)=O)C=CC=C1",
    "meta_data": {
        "InChI": "InChI=1S/C9H8O4/c1-13-9(12)7-5-3-2-4-6(7)8(10)11/h2-5H,1H3,(H,10,11)",
        "InChIKey": null,
        "Canonical SMILES": "O=C(O)C=1C=CC=CC1C(=O)OC",
        "Molecular Formula": "C<sub>9</sub>H<sub>8</sub>O<sub>4</sub>",
        "Molecular Mass": "180.16",
        "Melting Point": "82-84 °C"
    }
}