{
    "cas_no": "82572-04-1",
    "key_name": "1-Naphthalenemethanamine, α-methyl-, hydrochloride (1:1), (α<em>R</em>)-",
    "cn_name": null,
    "alternate_name": "1-Naphthalenemethanamine, α-methyl-, hydrochloride (1:1), (α<em>R</em>)-;1-Naphthalenemethanamine, α-methyl-, hydrochloride, (<em>R</em>)-;1-Naphthalenemethanamine, α-methyl-, hydrochloride, (α<em>R</em>)-;(R)-1-(1-Naphthyl)ethylamine hydrochloride;(<em>R</em>)-1-(1-Naphthyl)ethylammonium chloride;(R)-(+)-1-(1-Naphthyl)ethylamine hydrochloride;(R)-1-(Naphthalen-1-yl)ethanamine hydrochloride",
    "duplicated_cas_no": "",
    "SMILES": "[C@H](C)(N)C=1C2=C(C=CC1)C=CC=C2.Cl",
    "meta_data": {
        "InChI": "InChI=1S/C12H13N.ClH/c1-9(13)11-8-4-6-10-5-2-3-7-12(10)11;/h2-9H,13H2,1H3;1H/t9-;/m1./s1",
        "InChIKey": null,
        "Canonical SMILES": "Cl.NC(C1=CC=CC=2C=CC=CC21)C",
        "Molecular Formula": "C<sub>12</sub>H<sub>13</sub>N.ClH",
        "Molecular Mass": "",
        "Melting Point": "216 °C (decomp)"
    }
}