{
    "cas_no": "3238-40-2",
    "key_name": "2,5-Furandicarboxylic acid",
    "cn_name": "2,5-呋喃二甲酸;",
    "alternate_name": "2,5-Furandicarboxylic acid;Furane-α,α′-dicarboxylic acid;Dehydromucic acid;NSC 40740;FDCA",
    "duplicated_cas_no": "",
    "SMILES": "C(O)(=O)C=1OC(C(O)=O)=CC1",
    "meta_data": {
        "InChI": "InChI=1S/C6H4O5/c7-5(8)3-1-2-4(11-3)6(9)10/h1-2H,(H,7,8)(H,9,10)",
        "InChIKey": null,
        "Canonical SMILES": "O=C(O)C=1OC(=CC1)C(=O)O",
        "Molecular Formula": "C<sub>6</sub>H<sub>4</sub>O<sub>5</sub>",
        "Molecular Mass": "156.09",
        "Melting Point": "342 °C",
        "Density": "1.60 g/cm³"
    }
}