{
    "cas_no": "382-01-4",
    "key_name": "3-Bromo-1,1,1-trifluoro-2-butanone",
    "cn_name": "3-溴-1,1,1-三氟-2-丁酮;2-(三氟甲基)丙烯酸;",
    "alternate_name": "2-Butanone, 3-bromo-1,1,1-trifluoro-;3-Bromo-1,1,1-trifluoro-2-butanone;1,1,1-Trifluoro-3-bromobutan-2-one",
    "duplicated_cas_no": "",
    "SMILES": "C(C(F)(F)F)(C(Br)C)=O",
    "meta_data": {
        "InChI": "InChI=1S/C4H4BrF3O/c1-2(5)3(9)4(6,7)8/h2H,1H3",
        "InChIKey": null,
        "Canonical SMILES": "O=C(C(Br)C)C(F)(F)F",
        "Molecular Formula": "C<sub>4</sub>H<sub>4</sub>BrF<sub>3</sub>O",
        "Molecular Mass": "204.97",
        "Boiling Point": "93.0 °C",
        "Density": "1.6303 g/cm³ @ Temp: 25 °C"
    }
}