{
    "cas_no": "177-11-7",
    "key_name": "1,4-Dioxa-8-azaspiro[4.5]decane",
    "cn_name": "4-哌啶酮缩乙二醇;",
    "alternate_name": "1,4-Dioxa-8-azaspiro[4.5]decane;4-Piperidinone, cyclic 1,2-ethanediyl acetal;4-Piperidone ethylene acetal;4,4-(Ethylenedioxy)piperidine;4-Piperidone ethylene ketal;Piperidin-4-one ethylene ketal;8-Aza-1,4-dioxaspiro[4.5]decane;4-Piperidinone ethylene acetal;Piperidin-4-one monoethylene ketal",
    "duplicated_cas_no": "1194996-98-9",
    "SMILES": "C12(CCNCC1)OCCO2",
    "meta_data": {
        "InChI": "InChI=1S/C7H13NO2/c1-3-8-4-2-7(1)9-5-6-10-7/h8H,1-6H2",
        "InChIKey": null,
        "Canonical SMILES": "O1CCOC12CCNCC2",
        "Molecular Formula": "C<sub>7</sub>H<sub>13</sub>NO<sub>2</sub>",
        "Molecular Mass": "143.18",
        "Boiling Point": "108-110 °C @ Press: 26 Torr"
    }
}