{
    "cas_no": "126-91-0",
    "key_name": "(-)-Linalool",
    "cn_name": "(?)-芳樟醇;(R)-3,7-二甲基-1,6-辛二烯-3-醇;DL-里哪醇/芳樟醇;3,7-二甲-1,6-辛二烯-3-醇;沈香醇;胡荽油醇;",
    "alternate_name": "1,6-Octadien-3-ol, 3,7-dimethyl-, (3<em>R</em>)-;1,6-Octadien-3-ol, 3,7-dimethyl-, (<em>R</em>)-(-)-;1,6-Octadien-3-ol, 3,7-dimethyl-, (<em>R</em>)-;(3<em>R</em>)-3,7-Dimethyl-1,6-octadien-3-ol;(-)-3,7-Dimethyl-1,6-octadien-3-ol;Licareol;<em>l</em>-Licareol;<em>l</em>-Linalool;(<em>R</em>)-Linalool;(-)-Linalool;(3<em>R</em>)-(-)-Linalool;(<em>R</em>)-(-)-Linalool;(-)-(3<em>R</em>)-Linalool;(-)-Licareol;(3<em>R</em>)-Linalool;(-)-β-Linalool;(3R)-3,7-Dimethylocta-1,6-dien-3-ol",
    "duplicated_cas_no": "",
    "SMILES": "[C@@](CCC=C(C)C)(C=C)(C)O",
    "meta_data": {
        "InChI": "InChI=1S/C10H18O/c1-5-10(4,11)8-6-7-9(2)3/h5,7,11H,1,6,8H2,2-4H3/t10-/m0/s1",
        "InChIKey": null,
        "Canonical SMILES": "OC(C=C)(C)CCC=C(C)C",
        "Molecular Formula": "C<sub>10</sub>H<sub>18</sub>O",
        "Molecular Mass": "154.25",
        "Boiling Point": "80 °C",
        "Density": "0.8657 g/cm³ @ Temp: 20 °C"
    }
}