{
    "cas_no": "24214-72-0",
    "key_name": "Cyclopentylhydrazine hydrochloride",
    "cn_name": "环戊肼盐酸盐;",
    "alternate_name": "Hydrazine, cyclopentyl-, hydrochloride (1:1);Hydrazine, cyclopentyl-, monohydrochloride;Cyclopentylhydrazine hydrochloride",
    "duplicated_cas_no": "",
    "SMILES": "N(N)C1CCCC1.Cl",
    "meta_data": {
        "InChI": "InChI=1S/C5H12N2.ClH/c6-7-5-3-1-2-4-5;/h5,7H,1-4,6H2;1H",
        "InChIKey": null,
        "Canonical SMILES": "Cl.NNC1CCCC1",
        "Molecular Formula": "C<sub>5</sub>H<sub>12</sub>N<sub>2</sub>.ClH",
        "Molecular Mass": "",
        "Melting Point": "131-132 °C"
    }
}