{
    "cas_no": "3096-57-9",
    "key_name": "2-Amino-9<em>H</em>-fluoren-9-one",
    "cn_name": null,
    "alternate_name": "9<em>H</em>-Fluoren-9-one, 2-amino-;Fluoren-9-one, 2-amino-;2-Amino-9<em>H</em>-fluoren-9-one;2-Aminofluoren-9-one;2-Aminofluorenone;NSC 12368",
    "duplicated_cas_no": "",
    "SMILES": "O=C1C=2C(C=3C1=CC=CC3)=CC=C(N)C2",
    "meta_data": {
        "InChI": "InChI=1S/C13H9NO/c14-8-5-6-10-9-3-1-2-4-11(9)13(15)12(10)7-8/h1-7H,14H2",
        "InChIKey": null,
        "Canonical SMILES": "O=C1C=2C=CC=CC2C=3C=CC(N)=CC13",
        "Molecular Formula": "C<sub>13</sub>H<sub>9</sub>NO",
        "Molecular Mass": "195.22",
        "Melting Point": "160 °C"
    }
}