{
    "cas_no": "92-64-8",
    "key_name": "3-[(2-Hydroxyethyl)phenylamino]propanenitrile",
    "cn_name": "N-(2-氰乙基)-N-羟乙基苯胺;",
    "alternate_name": "Propanenitrile, 3-[(2-hydroxyethyl)phenylamino]-;Propionitrile, 3-[<em>N</em>-(2-hydroxyethyl)anilino]-;3-[(2-Hydroxyethyl)phenylamino]propanenitrile;<em>N</em>-β-Cyanoethyl-<em>N</em>-β-hydroxyethylaniline;<em>N</em>-(2-Cyanoethyl)-<em>N</em>-(2-hydroxyethyl)aniline;<em>N</em>-Cyanoethyl-<em>N</em>-hydroxyethylaniline;<em>N</em>-Cyanoethyl-<em>N</em>-ethanolaniline;3-[(2-Hydroxyethyl)(phenyl)amino]propanenitrile",
    "duplicated_cas_no": "",
    "SMILES": "N(CCC#N)(CCO)C1=CC=CC=C1",
    "meta_data": {
        "InChI": "InChI=1S/C11H14N2O/c12-7-4-8-13(9-10-14)11-5-2-1-3-6-11/h1-3,5-6,14H,4,8-10H2",
        "InChIKey": null,
        "Canonical SMILES": "N#CCCN(C=1C=CC=CC1)CCO",
        "Molecular Formula": "C<sub>11</sub>H<sub>14</sub>N<sub>2</sub>O",
        "Molecular Mass": "190.24",
        "Boiling Point": "205-207 °C @ Press: 8 Torr",
        "Melting Point": "68 °C"
    }
}