{
    "cas_no": "13472-81-6",
    "key_name": "3,5-Dibromo-2(1<em>H</em>)-pyridinone",
    "cn_name": "3,5-二溴-2-羟基嘧啶;3,5-二溴-2-羟基吡啶;",
    "alternate_name": "2(1<em>H</em>)-Pyridinone, 3,5-dibromo-;2(1<em>H</em>)-Pyridone, 3,5-dibromo-;3,5-Dibromo-2(1<em>H</em>)-pyridinone;3,5-Dibromo-2-pyridone;3,5-Dibromo-2-pyridinol;3,5-Dibromo-1<em>H</em>-pyridin-2-one;3,5-Dibromo-2-hydroxypyridine;3,5-Dibromo-1,2-dihydropyridin-2-one",
    "duplicated_cas_no": "",
    "SMILES": "BrC=1C(=O)NC=C(Br)C1",
    "meta_data": {
        "InChI": "InChI=1S/C5H3Br2NO/c6-3-1-4(7)5(9)8-2-3/h1-2H,(H,8,9)",
        "InChIKey": null,
        "Canonical SMILES": "O=C1NC=C(Br)C=C1Br",
        "Molecular Formula": "C<sub>5</sub>H<sub>3</sub>Br<sub>2</sub>NO",
        "Molecular Mass": "252.89",
        "Melting Point": "207 °C"
    }
}