{
    "cas_no": "126-92-1",
    "key_name": "Sodium 2-ethylhexyl sulfate",
    "cn_name": "2-乙基己基硫酸酯钠盐;异辛醇硫酸钠;异辛基硫酸钠;TC-EHS;",
    "alternate_name": "Sulfuric acid, mono(2-ethylhexyl) ester, sodium salt (1:1);Sulfuric acid, mono(2-ethylhexyl) ester, sodium salt;1-Hexanol, 2-ethyl-, hydrogen sulfate, sodium salt;2-Ethyl-1-hexanol sulfate sodium salt;2-Ethylhexyl sodium sulfate;Sodium etasulfate;Sodium ethasulfate;Sodium 2-ethylhexyl sulfate;Tergemist;Tergimist;Tergitol 08;Ethasulfate sodium;Sulfirol 8;Pentrone ON;Emcol D 5-10;Sole Tege TS 25;2-Ethyl-1-hexanol sodium sulfate;Tergitol Anionic 08;2-Ethylhexyl sulfate sodium salt;NAS 08;Niaproof 08;Sintrex EHR;Nissan Sintrex EHR;Lugalvan TC-EHS;Sulfotex CA;Rewopol NEHS 40;Witcolate D 5-10;Texapon 890;Sodium octyl sulphate;Sodium octyl sulfate;Newcol 1000SN;Avirol SA 4106;Sinolin SO 35;Rhodapon BOS;Supralate SP;Carsonol SHS;Rhodapon OLS;Lutensit TC-EHS;NSC 4744;Sulfotex OA;Stepanol EHS;Pionin A 20;Texapon EHS;Kraftex OA;Disponil EHS 47;Sandet OHE;Steponol EHS;Sulfopon O;TC-EHS;Rewopol D 510NC;Sandet ONA",
    "duplicated_cas_no": "11099-08-4;37349-48-7;75037-31-9",
    "SMILES": "C(COS(=O)(=O)O)(CCCC)CC.[Na]",
    "meta_data": {
        "InChI": "InChI=1S/C8H18O4S.Na/c1-3-5-6-8(4-2)7-12-13(9,10)11;/h8H,3-7H2,1-2H3,(H,9,10,11);",
        "InChIKey": null,
        "Canonical SMILES": "[Na].O=S(=O)(O)OCC(CC)CCCC",
        "Molecular Formula": "C<sub>8</sub>H<sub>18</sub>O<sub>4</sub>S.Na",
        "Molecular Mass": "",
        "Melting Point": "148-149 °C"
    }
}