{
    "cas_no": "399-35-9",
    "key_name": "<em>N</em>-(2-Chloro-4-fluorophenyl)acetamide",
    "cn_name": "2\"-氯-4\"-氟乙酰苯胺;",
    "alternate_name": "Acetamide, <em>N</em>-(2-chloro-4-fluorophenyl)-;Acetanilide, 2′-chloro-4′-fluoro-;<em>N</em>-(2-Chloro-4-fluorophenyl)acetamide;2-Chloro-4-fluoroacetanilide",
    "duplicated_cas_no": "",
    "SMILES": "N(C(C)=O)C1=C(Cl)C=C(F)C=C1",
    "meta_data": {
        "InChI": "InChI=1S/C8H7ClFNO/c1-5(12)11-8-3-2-6(10)4-7(8)9/h2-4H,1H3,(H,11,12)",
        "InChIKey": null,
        "Canonical SMILES": "O=C(NC1=CC=C(F)C=C1Cl)C",
        "Molecular Formula": "C<sub>8</sub>H<sub>7</sub>ClFNO",
        "Molecular Mass": "187.60",
        "Melting Point": "114-115.5 °C"
    }
}