{
    "cas_no": "926-77-2",
    "key_name": "Glycylalanine",
    "cn_name": "甘氨酰丙氨酸;",
    "alternate_name": "Alanine, glycyl-;Alanine, <em>N</em>-glycyl-, <span class=\"text-smallcaps\">DL</span>-;<span class=\"text-smallcaps\">DL</span>-Alanine, <em>N</em>-glycyl-;Glycylalanine;Glycyl-<span class=\"text-smallcaps\">DL</span>-alanine;Gly-<span class=\"text-smallcaps\">DL</span>-Ala;Glycyl-<span class=\"text-smallcaps\">DL</span>-α-alanine;Glycyl-(<em>RS</em>)-alanine;2-[(2-Azaniumylacetyl)amino]propanoate;2-(2-Aminoacetamido)propanoic acid",
    "duplicated_cas_no": "2325-50-0",
    "SMILES": "N(C(C(O)=O)C)C(CN)=O",
    "meta_data": {
        "InChI": "InChI=1S/C5H10N2O3/c1-3(5(9)10)7-4(8)2-6/h3H,2,6H2,1H3,(H,7,8)(H,9,10)",
        "InChIKey": null,
        "Canonical SMILES": "O=C(O)C(NC(=O)CN)C",
        "Molecular Formula": "C<sub>5</sub>H<sub>10</sub>N<sub>2</sub>O<sub>3</sub>",
        "Molecular Mass": "146.14",
        "Melting Point": "192 °C"
    }
}