{
    "cas_no": "31251-41-9",
    "key_name": "8-Chloro-5,6-dihydro-11<em>H</em>-benzo[5,6]cyclohepta[1,2-<em>b</em>]pyridin-11-one",
    "cn_name": "8-氯-5,6-二氢-11H-苯并[5,6]环庚烷并[1,2-b]吡啶-11-酮;",
    "alternate_name": "11<em>H</em>-Benzo[5,6]cyclohepta[1,2-<em>b</em>]pyridin-11-one, 8-chloro-5,6-dihydro-;8-Chloro-5,6-dihydro-11<em>H</em>-benzo[5,6]cyclohepta[1,2-<em>b</em>]pyridin-11-one",
    "duplicated_cas_no": "",
    "SMILES": "O=C1C=2C(=CC(Cl)=CC2)CCC=3C1=NC=CC3",
    "meta_data": {
        "InChI": "InChI=1S/C14H10ClNO/c15-11-5-6-12-10(8-11)4-3-9-2-1-7-16-13(9)14(12)17/h1-2,5-8H,3-4H2",
        "InChIKey": null,
        "Canonical SMILES": "O=C1C2=NC=CC=C2CCC3=CC(Cl)=CC=C13",
        "Molecular Formula": "C<sub>14</sub>H<sub>10</sub>ClNO",
        "Molecular Mass": "243.69",
        "Melting Point": "93.0 °C"
    }
}