{
    "cas_no": "13209-16-0",
    "key_name": "1,2-Bis(dibromomethyl)-4-nitrobenzene",
    "cn_name": "4-硝基-Α,Α,Α\",Α\"-四溴邻二甲苯;",
    "alternate_name": "Benzene, 1,2-bis(dibromomethyl)-4-nitro-;<em>o</em>-Xylene, α,α,α′,α′-tetrabromo-4-nitro-;1,2-Bis(dibromomethyl)-4-nitrobenzene;4-Nitro-1,2-bis(dibromomethyl)benzene;3,4-Bis(dibromomethyl)nitrobenzene",
    "duplicated_cas_no": "1081824-93-2",
    "SMILES": "C(Br)(Br)C1=C(C(Br)Br)C=CC(N(=O)=O)=C1",
    "meta_data": {
        "InChI": "InChI=1S/C8H5Br4NO2/c9-7(10)5-2-1-4(13(14)15)3-6(5)8(11)12/h1-3,7-8H",
        "InChIKey": null,
        "Canonical SMILES": "O=N(=O)C1=CC=C(C(=C1)C(Br)Br)C(Br)Br",
        "Molecular Formula": "C<sub>8</sub>H<sub>5</sub>Br<sub>4</sub>NO<sub>2</sub>",
        "Molecular Mass": "466.75",
        "Melting Point": "126-127 °C"
    }
}