{
    "cas_no": "3393-96-2",
    "key_name": "<em>N</em>-(4-Nitrophenyl)benzamide",
    "cn_name": "4-硝基苯甲酰苯胺;",
    "alternate_name": "Benzamide, <em>N</em>-(4-nitrophenyl)-;Benzanilide, 4′-nitro-;<em>N</em>-(4-Nitrophenyl)benzamide;4′-Nitrobenzanilide;<em>p</em>-Nitro-<em>N</em>-benzoylaniline;<em>p</em>′-Nitrobenzanilide;<em>N</em>-(<em>p</em>-Nitrophenyl)benzamide;<em>N</em>-Benzoyl-<em>p</em>-nitroaniline;<em>N</em>-Benzoyl-4-nitroaniline;NSC 82120",
    "duplicated_cas_no": "",
    "SMILES": "C(NC1=CC=C(N(=O)=O)C=C1)(=O)C2=CC=CC=C2",
    "meta_data": {
        "InChI": "InChI=1S/C13H10N2O3/c16-13(10-4-2-1-3-5-10)14-11-6-8-12(9-7-11)15(17)18/h1-9H,(H,14,16)",
        "InChIKey": null,
        "Canonical SMILES": "O=C(NC1=CC=C(C=C1)N(=O)=O)C=2C=CC=CC2",
        "Molecular Formula": "C<sub>13</sub>H<sub>10</sub>N<sub>2</sub>O<sub>3</sub>",
        "Molecular Mass": "242.23",
        "Melting Point": "197-198 °C",
        "Density": "1.43 g/cm³"
    }
}