{
    "cas_no": "15862-33-6",
    "key_name": "3-Bromo-5-nitro-2(1<em>H</em>)-pyridinone",
    "cn_name": "3-溴-5-硝基-2-羟基吡啶;",
    "alternate_name": "2(1<em>H</em>)-Pyridinone, 3-bromo-5-nitro-;2-Pyridinol, 3-bromo-5-nitro-;2(1<em>H</em>)-Pyridone, 3-bromo-5-nitro-;3-Bromo-5-nitro-2(1<em>H</em>)-pyridinone;3-Bromo-2-hydroxy-5-nitropyridine;3-Bromo-5-nitropyridin-2-ol;3-Bromo-5-nitro-1<em>H</em>-pyridin-2-one",
    "duplicated_cas_no": "",
    "SMILES": "N(=O)(=O)C=1C=C(Br)C(=O)NC1",
    "meta_data": {
        "InChI": "InChI=1S/C5H3BrN2O3/c6-4-1-3(8(10)11)2-7-5(4)9/h1-2H,(H,7,9)",
        "InChIKey": null,
        "Canonical SMILES": "O=C1NC=C(C=C1Br)N(=O)=O",
        "Molecular Formula": "C<sub>5</sub>H<sub>3</sub>BrN<sub>2</sub>O<sub>3</sub>",
        "Molecular Mass": "218.99",
        "Melting Point": "221-223 °C"
    }
}