{
    "cas_no": "1825-63-4",
    "key_name": "Trimethylpropoxysilane",
    "cn_name": "三甲基丙氧基硅烷;",
    "alternate_name": "Silane, trimethylpropoxy-;Trimethylpropoxysilane;Propoxytrimethylsilane;Trimethyl-<em>n</em>-propoxysilane;Propyl trimethylsilyl ether;Trimethylsilicon propoxide;Trimethylsilyl propyl ether;1-Propyl trimethylsilyl ether;(Trimethylsiloxy)propane",
    "duplicated_cas_no": "",
    "SMILES": "O([Si](C)(C)C)CCC",
    "meta_data": {
        "InChI": "InChI=1S/C6H16OSi/c1-5-6-7-8(2,3)4/h5-6H2,1-4H3",
        "InChIKey": null,
        "Canonical SMILES": "O(CCC)[Si](C)(C)C",
        "Molecular Formula": "C<sub>6</sub>H<sub>16</sub>OSi",
        "Molecular Mass": "132.28",
        "Boiling Point": "101-102 °C",
        "Density": "0.768 g/cm³"
    }
}