{
    "cas_no": "4737-50-2",
    "key_name": "<em>B</em>-Pentylboronic acid",
    "cn_name": "正戊基硼酸;",
    "alternate_name": "Boronic acid, <em>B</em>-pentyl-;1-Pentaneboronic acid;Boronic acid, pentyl-;<em>B</em>-Pentylboronic acid;Pentylboronic acid;NSC 524968;<em>n</em>-Pentylboronic acid",
    "duplicated_cas_no": "",
    "SMILES": "C(CCCC)B(O)O",
    "meta_data": {
        "InChI": "InChI=1S/C5H13BO2/c1-2-3-4-5-6(7)8/h7-8H,2-5H2,1H3",
        "InChIKey": null,
        "Canonical SMILES": "OB(O)CCCCC",
        "Molecular Formula": "C<sub>5</sub>H<sub>13</sub>BO<sub>2</sub>",
        "Molecular Mass": "115.97",
        "Melting Point": "93-94 °C"
    }
}