{
    "cas_no": "115538-83-5",
    "key_name": "4-(3-Chloro-2-hydroxypropoxy)benzeneacetamide",
    "cn_name": null,
    "alternate_name": "Benzeneacetamide, 4-(3-chloro-2-hydroxypropoxy)-;4-(3-Chloro-2-hydroxypropoxy)benzeneacetamide;1-(<em>p</em>-(Carbamoylmethyl)phenoxy)-3-chloropropan-2-ol;2-[4-(3-Chloro-2-hydroxypropoxy)phenyl]acetamide",
    "duplicated_cas_no": "144015-96-3",
    "SMILES": "O(CC(CCl)O)C1=CC=C(CC(N)=O)C=C1",
    "meta_data": {
        "InChI": "InChI=1S/C11H14ClNO3/c12-6-9(14)7-16-10-3-1-8(2-4-10)5-11(13)15/h1-4,9,14H,5-7H2,(H2,13,15)",
        "InChIKey": null,
        "Canonical SMILES": "O=C(N)CC1=CC=C(OCC(O)CCl)C=C1",
        "Molecular Formula": "C<sub>11</sub>H<sub>14</sub>ClNO<sub>3</sub>",
        "Molecular Mass": "243.69",
        "Melting Point": "129-132 °C"
    }
}