{
    "cas_no": "518-17-2",
    "key_name": "(+)-Evodiamine",
    "cn_name": "吴茱萸碱;",
    "alternate_name": "Indolo[2′,3′:3,4]pyrido[2,1-<em>b</em>]quinazolin-5(7<em>H</em>)-one, 8,13,13b,14-tetrahydro-14-methyl-, (13b<em>S</em>)-;Evodiamine;Indolo[2′,3′:3,4]pyrido[2,1-<em>b</em>]quinazolin-5(7<em>H</em>)-one, 8,13,13b,14-tetrahydro-14-methyl-, (<em>S</em>)-;(13b<em>S</em>)-8,13,13b,14-Tetrahydro-14-methylindolo[2′,3′:3,4]pyrido[2,1-<em>b</em>]quinazolin-5(7<em>H</em>)-one;Evodiamine, (+)-;(+)-Evodiamine;<em>d</em>-Evodiamine",
    "duplicated_cas_no": "",
    "SMILES": "CN1[C@@]2(C3=C(C=4C(N3)=CC=CC4)CCN2C(=O)C=5C1=CC=CC5)[H]",
    "meta_data": {
        "InChI": "InChI=1S/C19H17N3O/c1-21-16-9-5-3-7-14(16)19(23)22-11-10-13-12-6-2-4-8-15(12)20-17(13)18(21)22/h2-9,18,20H,10-11H2,1H3/t18-/m0/s1",
        "InChIKey": null,
        "Canonical SMILES": "O=C1C=2C=CC=CC2N(C)C3C=4NC=5C=CC=CC5C4CCN13",
        "Molecular Formula": "C<sub>19</sub>H<sub>17</sub>N<sub>3</sub>O",
        "Molecular Mass": "303.36",
        "Melting Point": "278 °C"
    }
}