{
    "cas_no": "3234-02-4",
    "key_name": "2,3-Dibromo-2-butene-1,4-diol",
    "cn_name": "2,3-二溴-1,4-丁烯二醇;2,3-二溴-2-丁烯-1,4-二醇;",
    "alternate_name": "2-Butene-1,4-diol, 2,3-dibromo-;2,3-Dibromo-2-butene-1,4-diol;NSC 76595;2,3-Dibormo-2-butene-1,4-diol",
    "duplicated_cas_no": "",
    "SMILES": "C(=C(CO)Br)(CO)Br",
    "meta_data": {
        "InChI": "InChI=1S/C4H6Br2O2/c5-3(1-7)4(6)2-8/h7-8H,1-2H2",
        "InChIKey": null,
        "Canonical SMILES": "BrC(=C(Br)CO)CO",
        "Molecular Formula": "C<sub>4</sub>H<sub>6</sub>Br<sub>2</sub>O<sub>2</sub>",
        "Molecular Mass": "245.90",
        "Melting Point": "117 °C"
    }
}