{
    "cas_no": "2302-39-8",
    "key_name": "4,5-Dimethyl-1<em>H</em>-imidazole",
    "cn_name": null,
    "alternate_name": "1<em>H</em>-Imidazole, 4,5-dimethyl-;Imidazole, 4,5-dimethyl-;4,5-Dimethyl-1<em>H</em>-imidazole;4,5-Dimethylimidazole",
    "duplicated_cas_no": "",
    "SMILES": "CC1=C(C)N=CN1",
    "meta_data": {
        "InChI": "InChI=1S/C5H8N2/c1-4-5(2)7-3-6-4/h3H,1-2H3,(H,6,7)",
        "InChIKey": null,
        "Canonical SMILES": "N1=CNC(=C1C)C",
        "Molecular Formula": "C<sub>5</sub>H<sub>8</sub>N<sub>2</sub>",
        "Molecular Mass": "96.13",
        "Boiling Point": "165-175 °C @ Press: 11 Torr",
        "Melting Point": "191-192 °C"
    }
}