{
    "cas_no": "18937-79-6",
    "key_name": "Methyl 2-hexynoate",
    "cn_name": "2-己炔甲酯;",
    "alternate_name": "2-Hexynoic acid, methyl ester;Methyl 2-hexynoate",
    "duplicated_cas_no": "",
    "SMILES": "C(C#CCCC)(OC)=O",
    "meta_data": {
        "InChI": "InChI=1S/C7H10O2/c1-3-4-5-6-7(8)9-2/h3-4H2,1-2H3",
        "InChIKey": null,
        "Canonical SMILES": "O=C(C#CCCC)OC",
        "Molecular Formula": "C<sub>7</sub>H<sub>10</sub>O<sub>2</sub>",
        "Molecular Mass": "126.15",
        "Boiling Point": "86 °C @ Press: 0.1 Torr"
    }
}