{
    "cas_no": "15128-82-2",
    "key_name": "3-Hydroxy-2-nitropyridine",
    "cn_name": "3-羟基-2-硝基吡啶;2-硝基-3-羟基吡啶;",
    "alternate_name": "3-Pyridinol, 2-nitro-;2-Nitro-3-pyridinol;3-Hydroxy-2-nitropyridine;2-Nitro-3-hydroxypyridine;NSC 97501",
    "duplicated_cas_no": "",
    "SMILES": "N(=O)(=O)C1=C(O)C=CC=N1",
    "meta_data": {
        "InChI": "InChI=1S/C5H4N2O3/c8-4-2-1-3-6-5(4)7(9)10/h1-3,8H",
        "InChIKey": null,
        "Canonical SMILES": "O=N(=O)C1=NC=CC=C1O",
        "Molecular Formula": "C<sub>5</sub>H<sub>4</sub>N<sub>2</sub>O<sub>3</sub>",
        "Molecular Mass": "140.10",
        "Melting Point": "66-68 °C"
    }
}