{
    "cas_no": "19040-62-1",
    "key_name": "2,5-Dimethylbenzenesulfonyl chloride",
    "cn_name": "2,5-二甲基苯磺酰氯;",
    "alternate_name": "Benzenesulfonyl chloride, 2,5-dimethyl-;2,5-Xylenesulfonyl chloride;2,5-Dimethylbenzenesulfonyl chloride;2,5-Dimethylphenylsulfonyl chloride;<em>p</em>-Xylene-2-sulfonyl chloride;2,5-Dimethylbenzene-1-sulfonyl chloride",
    "duplicated_cas_no": "",
    "SMILES": "S(Cl)(=O)(=O)C1=C(C)C=CC(C)=C1",
    "meta_data": {
        "InChI": "InChI=1S/C8H9ClO2S/c1-6-3-4-7(2)8(5-6)12(9,10)11/h3-5H,1-2H3",
        "InChIKey": null,
        "Canonical SMILES": "O=S(=O)(Cl)C1=CC(=CC=C1C)C",
        "Molecular Formula": "C<sub>8</sub>H<sub>9</sub>ClO<sub>2</sub>S",
        "Molecular Mass": "204.67",
        "Boiling Point": "149-150 °C @ Press: 12 Torr",
        "Melting Point": "156-158 °C"
    }
}