{
    "cas_no": "39969-28-3",
    "key_name": "1-Methoxy-4-[2-(4-pentylphenyl)ethynyl]benzene",
    "cn_name": null,
    "alternate_name": "Benzene, 1-methoxy-4-[2-(4-pentylphenyl)ethynyl]-;Benzene, 1-methoxy-4-[(4-pentylphenyl)ethynyl]-;1-Methoxy-4-[2-(4-pentylphenyl)ethynyl]benzene;<em>p</em>-[(<em>p</em>-Pentylphenyl)ethynyl]anisole;(<em>p</em>-Methoxyphenyl)(<em>p</em>-pentylphenyl)acetylene;<em>p</em>-Methoxy-<em>p</em>′-pentyltolane;4-Methoxy-4′-pentyltolan;<em>p</em>-Methoxy-<em>p</em>′-pentyltolan;4-Methoxy-4′-amyltolan;4-Pentyl-4′-methoxytolane;5-Btb-o1;1-Methoxy-4-[(4-pentylphenyl)ethynyl]benzene",
    "duplicated_cas_no": "",
    "SMILES": "C(#CC1=CC=C(OC)C=C1)C2=CC=C(CCCCC)C=C2",
    "meta_data": {
        "InChI": "InChI=1S/C20H22O/c1-3-4-5-6-17-7-9-18(10-8-17)11-12-19-13-15-20(21-2)16-14-19/h7-10,13-16H,3-6H2,1-2H3",
        "InChIKey": null,
        "Canonical SMILES": "C(#CC1=CC=C(C=C1)CCCCC)C2=CC=C(OC)C=C2",
        "Molecular Formula": "C<sub>20</sub>H<sub>22</sub>O",
        "Molecular Mass": "278.39",
        "Melting Point": "44-45 °C"
    }
}