{
    "cas_no": "28957-04-2",
    "key_name": "Oridonin",
    "cn_name": "冬凌草甲素;",
    "alternate_name": "Kaur-16-en-15-one, 7,20-epoxy-1,6,7,14-tetrahydroxy-, (1α,6β,7α,14<em>R</em>)-;Kaur-16-en-15-one, 7α,20-epoxy-1α,6β,7,14-tetrahydroxy-, (14<em>R</em>)-;Oridonin;6,11b-(Epoxymethano)-6a,9-methano-1<em>H</em>-cyclohepta[<em>a</em>]naphthalene, kaur-16-en-15-one deriv.;(1α,6β,7α,14<em>R</em>)-7,20-Epoxy-1,6,7,14-tetrahydroxykaur-16-en-15-one;Isodonol;NSC 250682;Oridonine;(-)-Oridonin;(1<em>S</em>,4A<em>R</em>,5<em>S</em>,6<em>S</em>,6a<em>R</em>,9<em>S</em>,11a<em>S</em>,11b<em>S</em>,14<em>R</em>)-1,5,6,14-Tetrahydroxy-4,4-dimethyl-8-methylenedecahydro-1<em>H</em>-6,11b-(epoxymethano)-6a,9-methanocyclohepta[<em>a</em>]naphthalen-7(8<em>H</em>)-one",
    "duplicated_cas_no": "18288-82-9;2305818-70-4",
    "SMILES": "O[C@]12[C@]34[C@]([C@]5(C([C@@H]1O)(C(C)(C)CC[C@@H]5O)[H])CO2)(CC[C@]([C@H]3O)(C(=C)C4=O)[H])[H]",
    "meta_data": {
        "InChI": "InChI=1S/C20H28O6/c1-9-10-4-5-11-18-8-26-20(25,19(11,14(9)22)15(10)23)16(24)13(18)17(2,3)7-6-12(18)21/h10-13,15-16,21,23-25H,1,4-8H2,2-3H3/t10-,11-,12-,13?,15+,16?,18+,19-,20+/m0/s1",
        "InChIKey": null,
        "Canonical SMILES": "O=C1C(=C)C2CCC3C1(C2O)C4(O)OCC53C(O)CCC(C)(C)C5C4O",
        "Molecular Formula": "C<sub>20</sub>H<sub>28</sub>O<sub>6</sub>",
        "Molecular Mass": "364.43",
        "Melting Point": "248-250 °C"
    }
}