{
    "cas_no": "52-21-1",
    "key_name": "Prednisolone acetate",
    "cn_name": "醋酸泼尼松龙;11b,17a,21-三羟基孕甾-1,4-二烯-3,20-二酮-21-醋酸酯;",
    "alternate_name": "Pregna-1,4-diene-3,20-dione, 21-(acetyloxy)-11,17-dihydroxy-, (11β)-;Pregna-1,4-diene-3,20-dione, 11β,17,21-trihydroxy-, 21-acetate;(11β)-21-(Acetyloxy)-11,17-dihydroxypregna-1,4-diene-3,20-dione;Meticortelone acetate;Nisolone;Prednisolone 21-acetate;Supercortyl;11β,17α,21-Trihydroxypregna-1,4-diene-3,20-dione 21-acetate;Prednisolone acetate;21-Acetoxy-11β,17-dihydroxypregna-1,4-diene-3,20-dione;Prenema;Cormalone;Cortipred;Deltilen;Prediacortin;Predicort;Prednelan N;Prednidoren;Inflanefran Forte;Hydroprednisone acetate;Pred-Forte;21-(Acetoxy)-11β,17α-dihydroxypregna-1,4-diene-3,20-dione;Econopred;Predalone 50;Ak-Tate;Meticotelone acetate;Inflanefran;Pred Mild;NSC 10966;Falcon;Falcon (steroid);EconoPred Plus;Omnipred;SPECTRUM_000826",
    "duplicated_cas_no": "",
    "SMILES": "C[C@@]12[C@]([C@]3([C@]([C@@H](O)C1)([C@]4(C)C(CC3)=CC(=O)C=C4)[H])[H])(CC[C@@]2(C(COC(C)=O)=O)O)[H]",
    "meta_data": {
        "InChI": "InChI=1S/C23H30O6/c1-13(24)29-12-19(27)23(28)9-7-17-16-5-4-14-10-15(25)6-8-21(14,2)20(16)18(26)11-22(17,23)3/h6,8,10,16-18,20,26,28H,4-5,7,9,11-12H2,1-3H3/t16-,17-,18-,20+,21-,22-,23-/m0/s1",
        "InChIKey": null,
        "Canonical SMILES": "O=C1C=CC2(C(=C1)CCC3C4CCC(O)(C(=O)COC(=O)C)C4(C)CC(O)C32)C",
        "Molecular Formula": "C<sub>23</sub>H<sub>30</sub>O<sub>6</sub>",
        "Molecular Mass": "402.48",
        "Melting Point": "238 °C (decomp)"
    }
}