{
    "cas_no": "17357-14-1",
    "key_name": "1<em>H</em>-Indol-3-ol, 5-bromo-, 3-acetate",
    "cn_name": "3-乙酰氧基-5-溴吲哚;5-溴吲羟乙酸盐;O-乙酰-5-溴吲羟;",
    "alternate_name": "1<em>H</em>-Indol-3-ol, 5-bromo-, 3-acetate;Indol-3-ol, 5-bromo-, acetate (ester);1<em>H</em>-Indol-3-ol, 5-bromo-, acetate (ester);Indol-3-ol, 5-bromo-, acetate;Indoxyl, 5-bromo-, acetate;5-Bromindoxyl acetate;5-Bromoindoxyl acetate;3-Acetoxy-5-bromoindole",
    "duplicated_cas_no": "",
    "SMILES": "O(C(C)=O)C=1C=2C(NC1)=CC=C(Br)C2",
    "meta_data": {
        "InChI": "InChI=1S/C10H8BrNO2/c1-6(13)14-10-5-12-9-3-2-7(11)4-8(9)10/h2-5,12H,1H3",
        "InChIKey": null,
        "Canonical SMILES": "O=C(OC1=CNC=2C=CC(Br)=CC12)C",
        "Molecular Formula": "C<sub>10</sub>H<sub>8</sub>BrNO<sub>2</sub>",
        "Molecular Mass": "254.08",
        "Melting Point": "118-119 °C"
    }
}