{
    "cas_no": "2425-10-7",
    "key_name": "Xylylcarb",
    "cn_name": "灭杀威;;3,4-二甲苯基-N-甲基氨基甲酸酯;",
    "alternate_name": "Phenol, 3,4-dimethyl-, 1-(<em>N</em>-methylcarbamate);Carbamic acid, methyl-, 3,4-xylyl ester;Phenol, 3,4-dimethyl-, methylcarbamate;3,4-Xylenol, methylcarbamate;V 17004;Meobal;3,4-Dimethylphenyl <em>N</em>-methylcarbamate;3,4-Xylyl <em>N</em>-methylcarbamate;3,4-Dimethylphenyl methylcarbamate;MPMC;3,4-Xylyl methylcarbamate;S 1042;Xylylcarb",
    "duplicated_cas_no": "",
    "SMILES": "O(C(NC)=O)C1=CC(C)=C(C)C=C1",
    "meta_data": {
        "InChI": "InChI=1S/C10H13NO2/c1-7-4-5-9(6-8(7)2)13-10(12)11-3/h4-6H,1-3H3,(H,11,12)",
        "InChIKey": null,
        "Canonical SMILES": "O=C(OC1=CC=C(C(=C1)C)C)NC",
        "Molecular Formula": "C<sub>10</sub>H<sub>13</sub>NO<sub>2</sub>",
        "Molecular Mass": "179.22",
        "Boiling Point": "126 °C",
        "Melting Point": "79.5 °C"
    }
}