{
    "cas_no": "926-64-7",
    "key_name": "(Dimethylamino)acetonitrile",
    "cn_name": "N,N-二甲基氨基乙腈;2-(二甲氨基)乙腈;N,N-二甲氨基乙腈;",
    "alternate_name": "Acetonitrile, 2-(dimethylamino)-;Acetonitrile, (dimethylamino)-;Glycinonitrile, <em>N</em>,<em>N</em>-dimethyl-;2-(Dimethylamino)acetonitrile;Dimethylcyanomethylamine;<em>N</em>-(Cyanomethyl)dimethylamine;(Dimethylamino)acetonitrile;NSC 148364",
    "duplicated_cas_no": "89363-82-6",
    "SMILES": "C(N(C)C)C#N",
    "meta_data": {
        "InChI": "InChI=1S/C4H8N2/c1-6(2)4-3-5/h4H2,1-2H3",
        "InChIKey": null,
        "Canonical SMILES": "N#CCN(C)C",
        "Molecular Formula": "C<sub>4</sub>H<sub>8</sub>N<sub>2</sub>",
        "Molecular Mass": "84.12",
        "Boiling Point": "137.5 °C",
        "Melting Point": "135-138 °C"
    }
}