{
    "cas_no": "30806-83-8",
    "key_name": "Ethyl 4-isocyanatobenzoate",
    "cn_name": "乙基-4-异叠酸苯酯;",
    "alternate_name": "Benzoic acid, 4-isocyanato-, ethyl ester;Benzoic acid, <em>p</em>-isocyanato-, ethyl ester;Ethyl <em>p</em>-isocyanatobenzoate;Ethyl 4-isocyanatobenzoate;4-(Ethoxycarbonyl)phenyl isocyanate;(<em>p</em>-Ethoxycarbonyl)phenyl isocyanate;4-Isocyanatobenzoic acid ethyl ester",
    "duplicated_cas_no": "1025436-22-9;1330062-09-3",
    "SMILES": "C(OCC)(=O)C1=CC=C(N=C=O)C=C1",
    "meta_data": {
        "InChI": "InChI=1S/C10H9NO3/c1-2-14-10(13)8-3-5-9(6-4-8)11-7-12/h3-6H,2H2,1H3",
        "InChIKey": null,
        "Canonical SMILES": "O=C=NC1=CC=C(C=C1)C(=O)OCC",
        "Molecular Formula": "C<sub>10</sub>H<sub>9</sub>NO<sub>3</sub>",
        "Molecular Mass": "191.18",
        "Boiling Point": "144-148 °C @ Press: 17 Torr",
        "Melting Point": "60 °C"
    }
}