{
    "cas_no": "628-99-9",
    "key_name": "(±)-2-Nonanol",
    "cn_name": null,
    "alternate_name": "2-Nonanol;1-Methyl-1-octanol;<span class=\"text-smallcaps\">DL</span>-Nonan-2-ol;(±)-2-Nonanol;NSC 9481;2-Hydroxynonane",
    "duplicated_cas_no": "74683-66-2",
    "SMILES": "C(CCCCC)CC(C)O",
    "meta_data": {
        "InChI": "InChI=1S/C9H20O/c1-3-4-5-6-7-8-9(2)10/h9-10H,3-8H2,1-2H3",
        "InChIKey": null,
        "Canonical SMILES": "OC(C)CCCCCCC",
        "Molecular Formula": "C<sub>9</sub>H<sub>20</sub>O",
        "Molecular Mass": "144.25",
        "Boiling Point": "193.5 °C",
        "Melting Point": "-35.5 °C",
        "Density": "0.8399 g/cm³ @ Temp: 0 °C"
    }
}