{
    "cas_no": "75-71-8",
    "key_name": "Dichlorodifluoromethane",
    "cn_name": "二氯二氟甲烷;二氟二氯甲烷;氟里昂-12;",
    "alternate_name": "Methane, dichlorodifluoro-;Dichlorodifluoromethane;Freon 12;Algofrene Type 2;Arcton 6;Difluorodichloromethane;Electro-CF 12;Frigen 12;Genetron 12;Isceon 122;Isotron 12;Ledon 12;FC 12;R 12 (refrigerant);Arcton 12;R 12;Chlorofluorocarbon 12;F 12;CF 12;Forane 12;CFC 12;Khladon 12;FKW 12;Dichlorodifluoromethane (CCl<sub>2</sub>F<sub>2</sub>);FCC 12;F 12 (halocarbon);Fron 12;Refrigerant R 12;Carbon dichloride difluoride;Frigen R12;Dymel 12;CF 12 (halocarbon);SDD 100;Chladone 12;HC 12;FC 12 (refrigerant)",
    "duplicated_cas_no": "62185-71-1;185009-39-6;1256919-17-1",
    "SMILES": "C(Cl)(Cl)(F)F",
    "meta_data": {
        "InChI": "InChI=1S/CCl2F2/c2-1(3,4)5",
        "InChIKey": null,
        "Canonical SMILES": "FC(F)(Cl)Cl",
        "Molecular Formula": "CCl<sub>2</sub>F<sub>2</sub>",
        "Molecular Mass": "120.91",
        "Boiling Point": "-29.8 °C @ Press: 760 Torr",
        "Melting Point": "-158 °C",
        "Density": "1.486 g/cm³ @ Temp: -29.8 °C"
    }
}