{
    "cas_no": "5690-03-9",
    "key_name": "Splitomicin",
    "cn_name": null,
    "alternate_name": "3<em>H</em>-Naphtho[2,1-<em>b</em>]pyran-3-one, 1,2-dihydro-;1-Naphthalenepropionic acid, 2-hydroxy-, δ-lactone;1,2-Dihydro-3<em>H</em>-naphtho[2,1-<em>b</em>]pyran-3-one;1-Naphthalenepropanoic acid, 2-hydroxy-, δ-lactone;Splitomicin;Splitomycin;1,2-Dihydro-3<em>H</em>-benzo[<em>f</em>]chromen-3-one;1,2-Dihydrobenzo[<em>f</em>]chromen-3-one",
    "duplicated_cas_no": "",
    "SMILES": "O=C1OC=2C(=C3C(=CC2)C=CC=C3)CC1",
    "meta_data": {
        "InChI": "InChI=1S/C13H10O2/c14-13-8-6-11-10-4-2-1-3-9(10)5-7-12(11)15-13/h1-5,7H,6,8H2",
        "InChIKey": null,
        "Canonical SMILES": "O=C1OC=2C=CC=3C=CC=CC3C2CC1",
        "Molecular Formula": "C<sub>13</sub>H<sub>10</sub>O<sub>2</sub>",
        "Molecular Mass": "198.22",
        "Boiling Point": "155-158 °C @ Press: 0.01 Torr",
        "Melting Point": "73-74.5 °C"
    }
}