{
    "cas_no": "2612-02-4",
    "key_name": "5-Methoxysalicylic acid",
    "cn_name": "5-甲氧基水杨酸;",
    "alternate_name": "Benzoic acid, 2-hydroxy-5-methoxy-;<em>m</em>-Anisic acid, 6-hydroxy-;2-Hydroxy-5-methoxybenzoic acid;5-Methoxy-2-hydroxybenzoic acid;5-Methoxysalicylic acid;6-Methoxy-<em>m</em>-anisic acid;NSC 2579;5-Methoxy-2-hydroxybenzenecarboxylic acid",
    "duplicated_cas_no": "",
    "SMILES": "C(O)(=O)C1=CC(OC)=CC=C1O",
    "meta_data": {
        "InChI": "InChI=1S/C8H8O4/c1-12-5-2-3-7(9)6(4-5)8(10)11/h2-4,9H,1H3,(H,10,11)",
        "InChIKey": null,
        "Canonical SMILES": "O=C(O)C1=CC(OC)=CC=C1O",
        "Molecular Formula": "C<sub>8</sub>H<sub>8</sub>O<sub>4</sub>",
        "Molecular Mass": "168.15",
        "Melting Point": "145-146 °C"
    }
}