{
    "cas_no": "20255-94-1",
    "key_name": "1,2-Dimyristoyl-rac-glycerol",
    "cn_name": "1,2-二肉豆蔻酰-外消旋-甘油;1,2-二肉豆蔻酰-外消旋-甘油;1,2-二(十四酸)甘油酯;",
    "alternate_name": "Tetradecanoic acid, 1,1′-[1-(hydroxymethyl)-1,2-ethanediyl] ester;Myristin, 1,2-di-;Tetradecanoic acid, 1-(hydroxymethyl)-1,2-ethanediyl ester;1,2-Dimyristin;1,2-Glycerin dimyristic acid ester;1,2-Dimyristoylglycerin;1,2-Dimyristoyl glycerol;1,2-Dimyristoyl-rac-glycerol;Glycerol 1,2-ditetradecanoate;3-Hydroxypropane-1,2-diyl ditetradecanoate",
    "duplicated_cas_no": "56270-93-0",
    "SMILES": "C(OC(CCCCCCCCCCCCC)=O)(COC(CCCCCCCCCCCCC)=O)CO",
    "meta_data": {
        "InChI": "InChI=1S/C31H60O5/c1-3-5-7-9-11-13-15-17-19-21-23-25-30(33)35-28-29(27-32)36-31(34)26-24-22-20-18-16-14-12-10-8-6-4-2/h29,32H,3-28H2,1-2H3",
        "InChIKey": null,
        "Canonical SMILES": "O=C(OCC(OC(=O)CCCCCCCCCCCCC)CO)CCCCCCCCCCCCC",
        "Molecular Formula": "C<sub>31</sub>H<sub>60</sub>O<sub>5</sub>",
        "Molecular Mass": "512.81",
        "Melting Point": "80 °C"
    }
}