{
    "cas_no": "2930-05-4",
    "key_name": "Benzyl glycidyl ether",
    "cn_name": "苄基缩水甘油醚;",
    "alternate_name": "Oxirane, 2-[(phenylmethoxy)methyl]-;Propane, 1-(benzyloxy)-2,3-epoxy-;Oxirane, [(phenylmethoxy)methyl]-;2-[(Phenylmethoxy)methyl]oxirane;Benzyl glycidyl ether;(Benzyloxymethyl)oxirane;3-(Benzyloxy)-1,2-epoxypropane;1-(Benzyloxy)-2,3-epoxypropane;2-(Benzyloxymethyl)oxirane;Glycidol benzyl ether;Glycidyl benzyl ether;[(Phenylmethoxy)methyl]oxirane;(±)-<em>O</em>-Benzylglycidol;JX 011;XY 692;2-[[(Benzyloxy)methyl]oxy]oxirane;Diluent 692;NXA 692;LS 692;Xinyuan 692;YS 692;YCL 692",
    "duplicated_cas_no": "89616-40-0;2110438-10-1",
    "SMILES": "C(OCC1=CC=CC=C1)C2CO2",
    "meta_data": {
        "InChI": "InChI=1S/C10H12O2/c1-2-4-9(5-3-1)6-11-7-10-8-12-10/h1-5,10H,6-8H2",
        "InChIKey": null,
        "Canonical SMILES": "O(CC=1C=CC=CC1)CC2OC2",
        "Molecular Formula": "C<sub>10</sub>H<sub>12</sub>O<sub>2</sub>",
        "Molecular Mass": "164.20",
        "Boiling Point": "78-80 °C @ Press: 10 Torr",
        "Melting Point": "89.5-90.1 °C",
        "Density": "1.0960 g/cm³ @ Temp: 20 °C"
    }
}