{
    "cas_no": "5429-56-1",
    "key_name": "2-Acetamidoacrylic acid",
    "cn_name": "2-乙酰氨基丙烯酸;",
    "alternate_name": "2-Propenoic acid, 2-(acetylamino)-;Acrylic acid, 2-acetamido-;2-(Acetylamino)-2-propenoic acid;2-Acetamidoacrylic acid;<em>N</em>-Acetyldehydroalanine;Acetyldehydroalanine;α-Acetamidoacrylic acid;2-(Acetylamino)acrylic acid;<em>N</em>-Acetyl-α-aminoacrylic acid;<em>N</em>-Acetyl-α,β-dehydroalanine;α-(Acetylamino)acrylic acid;NSC 14171;2-Acetamidoprop-2-enoic acid",
    "duplicated_cas_no": "",
    "SMILES": "C(NC(C)=O)(C(O)=O)=C",
    "meta_data": {
        "InChI": "InChI=1S/C5H7NO3/c1-3(5(8)9)6-4(2)7/h1H2,2H3,(H,6,7)(H,8,9)",
        "InChIKey": null,
        "Canonical SMILES": "O=C(O)C(=C)NC(=O)C",
        "Molecular Formula": "C<sub>5</sub>H<sub>7</sub>NO<sub>3</sub>",
        "Molecular Mass": "129.11",
        "Melting Point": "198-200 °C (decomp)"
    }
}