{
    "cas_no": "328-39-2",
    "key_name": "Leucine",
    "cn_name": "DL-亮氨酸;DL-白氨酸;DL-2-氨基-4-甲基戊酸;",
    "alternate_name": "Leucine;Leucine, <span class=\"text-smallcaps\">D</smallcap><smallcap>L</span>-;<span class=\"text-smallcaps\">D</smallcap><smallcap>L</span>-Leucine;(±)-Leucine;(<em>RS</em>)-Leucine;NSC 9252;2-Amino-4-methylpentanoic acid",
    "duplicated_cas_no": "1105707-16-1",
    "SMILES": "C(CC(C)C)(C(O)=O)N",
    "meta_data": {
        "InChI": "InChI=1S/C6H13NO2/c1-4(2)3-5(7)6(8)9/h4-5H,3,7H2,1-2H3,(H,8,9)",
        "InChIKey": null,
        "Canonical SMILES": "O=C(O)C(N)CC(C)C",
        "Molecular Formula": "C<sub>6</sub>H<sub>13</sub>NO<sub>2</sub>",
        "Molecular Mass": "131.17",
        "Melting Point": "293 °C"
    }
}