{
    "cas_no": "1070-11-7",
    "key_name": "Ethambutol hydrochloride",
    "cn_name": "盐酸乙胺丁醇;乙胺丁醇二盐酸盐;2,2\"-(1,2-乙二胺)二-1-丁醇二盐酸盐;",
    "alternate_name": "1-Butanol, 2,2′-(1,2-ethanediyldiimino)bis-, hydrochloride (1:2), (2<em>S</em>,2′<em>S</em>)-;1-Butanol, 2,2′-(ethylenediimino)di-, dihydrochloride, (+)-;1-Butanol, 2,2′-(1,2-ethanediyldiimino)bis-, dihydrochloride, [<em>S</em>-(<em>R</em>*,<em>R</em>*)]-;1-Butanol, 2,2′-(1,2-ethanediyldiimino)bis-, dihydrochloride, (2<em>S</em>,2′<em>S</em>)-;CL 40881;Ethambutol dihydrochloride;Ethambutol hydrochloride;<em>d</em>-2,2′-(Ethylenediimino)-di-1-butanol dihydrochloride;Myambutol;(+)-2,2′-(Ethylenediimino)di-1-butanol dihydrochloride;Dadibutol;Sural;Mycobutol;Dexambutol;Ebutol;Tibutol;Ethambutold dihydrochloride;Etapiam;Etibi;Tambutol",
    "duplicated_cas_no": "25612-54-8;51575-55-4",
    "SMILES": "[C@H](NCCN[C@@H](CC)CO)(CC)CO.Cl",
    "meta_data": {
        "InChI": "InChI=1S/C10H24N2O2.2ClH/c1-3-9(7-13)11-5-6-12-10(4-2)8-14;;/h9-14H,3-8H2,1-2H3;2*1H/t9-,10-;;/m0../s1",
        "InChIKey": null,
        "Canonical SMILES": "Cl.OCC(NCCNC(CO)CC)CC",
        "Molecular Formula": "C<sub>10</sub>H<sub>24</sub>N<sub>2</sub>O<sub>2</sub>.2ClH",
        "Molecular Mass": "",
        "Melting Point": "198.5-200.3 °C"
    }
}