{
    "cas_no": "73732-51-1",
    "key_name": "5-(3-Aminophenyl)tetrazole",
    "cn_name": "5-(3-氨基苯基)四唑;",
    "alternate_name": "Benzenamine, 3-(2<em>H</em>-tetrazol-5-yl)-;Benzenamine, 3-(1<em>H</em>-tetrazol-5-yl)-;Tetrazole, 5-(<em>m</em>-aminophenyl)-;3-(2<em>H</em>-Tetrazol-5-yl)benzenamine;5-(<em>m</em>-Aminophenyl)tetrazole;5-(3-Aminophenyl)tetrazole;3-(1<em>H</em>-Tetrazol-5-yl)aniline;NSC 338110;3-(Tetrazol-5-yl)aniline;3-(1<em>H</em>-Tetrazol-5-yl)phenylamine",
    "duplicated_cas_no": "",
    "SMILES": "NC=1C=C(C=CC1)C=2NN=NN2",
    "meta_data": {
        "InChI": "InChI=1S/C7H7N5/c8-6-3-1-2-5(4-6)7-9-11-12-10-7/h1-4H,8H2,(H,9,10,11,12)",
        "InChIKey": null,
        "Canonical SMILES": "N1=NNC(=N1)C=2C=CC=C(N)C2",
        "Molecular Formula": "C<sub>7</sub>H<sub>7</sub>N<sub>5</sub>",
        "Molecular Mass": "161.16",
        "Melting Point": "199-200 °C"
    }
}