{
    "cas_no": "21149-26-8",
    "key_name": "8-Hydroxyadenine",
    "cn_name": null,
    "alternate_name": "8<em>H</em>-Purin-8-one, 6-amino-7,9-dihydro-;8<em>H</em>-Purin-8-one, 6-amino-1,7-dihydro-;Purin-8(9<em>H</em>)-one, 6-amino-;Purin-8-ol, 6-amino-;6-Amino-7,9-dihydro-8<em>H</em>-purin-8-one;8-Hydroxyadenine;6-Amino-8-hydroxypurine;Oxyadenine;Oxaden;1<em>H</em>-Purin-6-amine, 8-hydroxy-;8-Oxoadenine;Oksaden;8-Oxo-7,8-dihydroadenine;7,8-Dihydro-8-oxoadenine;NSC 24123",
    "duplicated_cas_no": "13065-44-6",
    "SMILES": "NC1=C2C(NC(=O)N2)=NC=N1",
    "meta_data": {
        "InChI": "InChI=1S/C5H5N5O/c6-3-2-4(8-1-7-3)10-5(11)9-2/h1H,(H4,6,7,8,9,10,11)",
        "InChIKey": null,
        "Canonical SMILES": "O=C1NC=2N=CN=C(N)C2N1",
        "Molecular Formula": "C<sub>5</sub>H<sub>5</sub>N<sub>5</sub>O",
        "Molecular Mass": "151.13",
        "Melting Point": "&gt;320 °C (decomp)"
    }
}