{
    "cas_no": "623-66-5",
    "key_name": "Octanoic anhydride",
    "cn_name": "正辛酸酐;辛酸酐;",
    "alternate_name": "Octanoic acid, 1,1′-anhydride;Octanoic anhydride;Octanoic acid, anhydride;Caprylic anhydride;Octanoyl anhydride;Caprylic acid anhydride;NSC 57372;<em>n</em>-Octanoic anhydride",
    "duplicated_cas_no": "",
    "SMILES": "C(OC(CCCCCCC)=O)(CCCCCCC)=O",
    "meta_data": {
        "InChI": "InChI=1S/C16H30O3/c1-3-5-7-9-11-13-15(17)19-16(18)14-12-10-8-6-4-2/h3-14H2,1-2H3",
        "InChIKey": null,
        "Canonical SMILES": "O=C(OC(=O)CCCCCCC)CCCCCCC",
        "Molecular Formula": "C<sub>16</sub>H<sub>30</sub>O<sub>3</sub>",
        "Molecular Mass": "270.41",
        "Boiling Point": "282.5 °C",
        "Melting Point": "-1 °C",
        "Density": "0.8649 g/cm³ @ Temp: 70 °C"
    }
}