{
    "cas_no": "33045-52-2",
    "key_name": "Methyl 2-methoxy-5-sulfamoylbenzoate",
    "cn_name": "2-甲氧基-5-磺酰胺苯甲酸甲酯;邻甲氧基-5-磺酰胺苯甲酸甲酯;",
    "alternate_name": "Benzoic acid, 5-(aminosulfonyl)-2-methoxy-, methyl ester;<em>o</em>-Anisic acid, 5-sulfamoyl-, methyl ester;Methyl 2-methoxy-5-sulfamoylbenzoate;Methyl 5-(aminosulfonyl)-2-methoxybenzoate;Methyl 5-sulfamoyl-2-methoxybenzoate;4-Methoxy-3-(methoxycarbonyl)benzenesulfonamide",
    "duplicated_cas_no": "",
    "SMILES": "C(OC)(=O)C1=C(OC)C=CC(S(N)(=O)=O)=C1",
    "meta_data": {
        "InChI": "InChI=1S/C9H11NO5S/c1-14-8-4-3-6(16(10,12)13)5-7(8)9(11)15-2/h3-5H,1-2H3,(H2,10,12,13)",
        "InChIKey": null,
        "Canonical SMILES": "O=C(OC)C1=CC(=CC=C1OC)S(=O)(=O)N",
        "Molecular Formula": "C<sub>9</sub>H<sub>11</sub>NO<sub>5</sub>S",
        "Molecular Mass": "245.25",
        "Melting Point": "159-160 °C"
    }
}