{
    "cas_no": "62391-99-5",
    "key_name": "2-(1-Methylethyl)pentanoic acid",
    "cn_name": null,
    "alternate_name": "Pentanoic acid, 2-(1-methylethyl)-;2-(1-Methylethyl)pentanoic acid;2-Isopropylpentanoic acid;2-(Propan-2-yl)pentanoic acid",
    "duplicated_cas_no": "",
    "SMILES": "C(CCC)(C(C)C)C(O)=O",
    "meta_data": {
        "InChI": "InChI=1S/C8H16O2/c1-4-5-7(6(2)3)8(9)10/h6-7H,4-5H2,1-3H3,(H,9,10)",
        "InChIKey": null,
        "Canonical SMILES": "O=C(O)C(CCC)C(C)C",
        "Molecular Formula": "C<sub>8</sub>H<sub>16</sub>O<sub>2</sub>",
        "Molecular Mass": "144.21",
        "Boiling Point": "112-113 °C @ Press: 2 Torr",
        "Density": "0.9076 g/cm³ @ Temp: 17 °C"
    }
}