{
    "cas_no": "86-35-1",
    "key_name": "Ethotoin",
    "cn_name": null,
    "alternate_name": "2,4-Imidazolidinedione, 3-ethyl-5-phenyl-;Hydantoin, 3-ethyl-5-phenyl-;3-Ethyl-5-phenyl-2,4-imidazolidinedione;1-Ethyl-2,5-dioxo-4-phenylimidazolidine;3-Ethyl-5-phenylhydantoin;3-Ethyl-5-phenylimidazolidin-2,4-dione;Peganone;Ethotoin;AC-695;Accenon;(±)-Ethotoin",
    "duplicated_cas_no": "61247-71-0",
    "SMILES": "O=C1C(NC(=O)N1CC)C2=CC=CC=C2",
    "meta_data": {
        "InChI": "InChI=1S/C11H12N2O2/c1-2-13-10(14)9(12-11(13)15)8-6-4-3-5-7-8/h3-7,9H,2H2,1H3,(H,12,15)",
        "InChIKey": null,
        "Canonical SMILES": "O=C1NC(C=2C=CC=CC2)C(=O)N1CC",
        "Molecular Formula": "C<sub>11</sub>H<sub>12</sub>N<sub>2</sub>O<sub>2</sub>",
        "Molecular Mass": "204.23",
        "Melting Point": "94 °C"
    }
}