{
    "cas_no": "4439-20-7",
    "key_name": "2,2′-(1,2-Ethanediyldiimino)bis[ethanol]",
    "cn_name": "N,N-Bis(2-羟乙基)乙二胺;N,N-Bis(2-羟乙基)乙二胺;",
    "alternate_name": "Ethanol, 2,2′-(1,2-ethanediyldiimino)bis-;Ethanol, 2,2′-(ethylenediimino)di-;2,2′-(1,2-Ethanediyldiimino)bis[ethanol];<em>N</em>,<em>N</em>′-Di(β-hydroxyethyl)ethylenediamine;<em>N</em>,<em>N</em>′-Bis(2-hydroxyethyl)ethylenediamine;1,2-Ethanediamine, <em>N</em>,<em>N</em>′-bis(2-hydroxyethyl)-;1,2-Bis(β-hydroxyethylamino)ethane;1,2-Bis[(2-hydroxyethyl)amino]ethane;<em>N</em>,<em>N</em>′-Diethanolethylenediamine;<em>N</em>,<em>N</em>′-Bis(β-hydroxyethyl)ethylenediamine;Bis(2-hydroxyethylamino)ethane;3,6-Diazaoctane-1,8-diol;<em>N</em>,<em>N</em>′-Bis(2-hydroxyethyl)-1,2-ethanediamine;<em>N</em>,<em>N</em>′-Bis(hydroxyethyl)ethylenediamine;NSC 18476;Amino Alcohol A-EAD;<em>N</em>,<em>N</em>′-Di(2-hydroxyethyl)ethylenediamine;(N,N′-Bis(2-hydroxyethyl)ethylenediamine);2,2′-(Ethane-1,2-diylbis(azanediyl))diethanol;2-[2-(2-Hydroxyethylamino)ethylamino]ethanol;2-[2-(2-Hydroxy-ethylamino)-ethylamino]-ethanol",
    "duplicated_cas_no": "",
    "SMILES": "C(CNCCO)NCCO",
    "meta_data": {
        "InChI": "InChI=1S/C6H16N2O2/c9-5-3-7-1-2-8-4-6-10/h7-10H,1-6H2",
        "InChIKey": null,
        "Canonical SMILES": "OCCNCCNCCO",
        "Molecular Formula": "C<sub>6</sub>H<sub>16</sub>N<sub>2</sub>O<sub>2</sub>",
        "Molecular Mass": "148.20",
        "Boiling Point": "175-190 °C @ Press: 13 Torr",
        "Melting Point": "97.5 °C"
    }
}