{
    "cas_no": "1568-80-5",
    "key_name": "2,2′,3,3′-Tetrahydro-3,3,3′,3′-tetramethyl-1,1′-spirobi[1<em>H</em>-indene]-6,6′-diol",
    "cn_name": null,
    "alternate_name": "1,1′-Spirobi[1<em>H</em>-indene]-6,6′-diol, 2,2′,3,3′-tetrahydro-3,3,3′,3′-tetramethyl-;1,1′-Spirobi[indan]-6,6′-diol, 3,3,3′,3′-tetramethyl-;2,2′,3,3′-Tetrahydro-3,3,3′,3′-tetramethyl-1,1′-spirobi[1<em>H</em>-indene]-6,6′-diol;3,3,3′,3′-Tetramethyl-1,1′-spirobi[indane]-6,6′-diol;6,6′-Dihydroxy-3,3,3′,3′-tetramethyl-1,1′-spirobiindane;SI (diol);SI;3,3,3′,3′-Tetramethyl-1,1′-spiroindane-6,6′-diol;3,3,3′,3′-Tetramethyl-2,2′,3,3′-tetrahydro-1,1′-spirobi[indene]-6,6′-diol;3,3,3′,3′-Tetramethyl-1,1′-spirobiindan-6,6′-diol;3,3,3′,3′-Tetramethyl-1,1′-spirobisindane-6,6′-diol;3,3,3′,3′-Tetramethyl-1,1′-spirobisindan-6,6′-diol;3,3′-Spiro-bis(1,1-dimethyl-2,3-dihydro-1H-inden-5-ol);SPDI",
    "duplicated_cas_no": "127379-84-4;138322-26-6",
    "SMILES": "CC1(C)CC2(C=3C(C(C)(C)C2)=CC=C(O)C3)C=4C1=CC=C(O)C4",
    "meta_data": {
        "InChI": "InChI=1S/C21H24O2/c1-19(2)11-21(17-9-13(22)5-7-15(17)19)12-20(3,4)16-8-6-14(23)10-18(16)21/h5-10,22-23H,11-12H2,1-4H3",
        "InChIKey": null,
        "Canonical SMILES": "OC1=CC=C2C(=C1)C3(C4=CC(O)=CC=C4C(C)(C)C3)CC2(C)C",
        "Molecular Formula": "C<sub>21</sub>H<sub>24</sub>O<sub>2</sub>",
        "Molecular Mass": "308.41",
        "Melting Point": "213-214 °C"
    }
}