{
    "cas_no": "207740-26-9",
    "key_name": "2,5-Dimethoxy-4-(<em>n</em>)-propylthiophenethylamine",
    "cn_name": "2,5-二甲氧基-4-正丙硫基苯乙胺;",
    "alternate_name": "Benzeneethanamine, 2,5-dimethoxy-4-(propylthio)-;2,5-Dimethoxy-4-(propylthio)benzeneethanamine;2,5-Dimethoxy-4-(propylthio)phenethylamine;2C-T7;2,5-Dimethoxy-4-(<em>n</em>)-propylthiophenethylamine;2,5-Dimethoxy-4-propylthio-β-phenethylamine;2-[2,5-Dimethoxy-4-(propylsulfanyl)phenyl]ethan-1-amine",
    "duplicated_cas_no": "",
    "SMILES": "S(CCC)C1=C(OC)C=C(CCN)C(OC)=C1",
    "meta_data": {
        "InChI": "InChI=1S/C13H21NO2S/c1-4-7-17-13-9-11(15-2)10(5-6-14)8-12(13)16-3/h8-9H,4-7,14H2,1-3H3",
        "InChIKey": null,
        "Canonical SMILES": "O(C1=CC(=C(OC)C=C1SCCC)CCN)C",
        "Molecular Formula": "C<sub>13</sub>H<sub>21</sub>NO<sub>2</sub>S",
        "Molecular Mass": "255.38",
        "Melting Point": "135 °C"
    }
}