{
    "cas_no": "103-39-9",
    "key_name": "2-[(1-Methyl-2-phenoxyethyl)amino]ethanol",
    "cn_name": null,
    "alternate_name": "Ethanol, 2-[(1-methyl-2-phenoxyethyl)amino]-;2-[(1-Methyl-2-phenoxyethyl)amino]ethanol;2-[(1-Phenoxypropan-2-yl)amino]ethan-1-ol;2-((1-Phenoxypropan-2-yl)amino)ethanol;2-(1-Phenoxypropan-2-ylamino)ethanol",
    "duplicated_cas_no": "",
    "SMILES": "O(CC(NCCO)C)C1=CC=CC=C1",
    "meta_data": {
        "InChI": "InChI=1S/C11H17NO2/c1-10(12-7-8-13)9-14-11-5-3-2-4-6-11/h2-6,10,12-13H,7-9H2,1H3",
        "InChIKey": null,
        "Canonical SMILES": "OCCNC(C)COC=1C=CC=CC1",
        "Molecular Formula": "C<sub>11</sub>H<sub>17</sub>NO<sub>2</sub>",
        "Molecular Mass": "195.26",
        "Melting Point": "70.5-72.0 °C"
    }
}