{
    "cas_no": "21586-90-3",
    "key_name": "(1β,2α,11β,12α,15β)-13,20-Epoxy-1,2,11,12,14,15-hexahydroxypicras-3-en-16-one",
    "cn_name": null,
    "alternate_name": "Picras-3-en-16-one, 13,20-epoxy-1,2,11,12,14,15-hexahydroxy-, (1β,2α,11β,12α,15β)-;5<em>H</em>-3,11cβ-(Epoxymethano)phenanthro[10,1-<em>bc</em>]pyran-5-one, 1,2,3,3a,4,6aβ,7,7aα,10,11,11a,11bα-dodecahydro-1β,2α,3aβ,4β,10α,11β-hexahydroxy-3α,8,11aβ-trimethyl-, (+)-;(1β,2α,11β,12α,15β)-13,20-Epoxy-1,2,11,12,14,15-hexahydroxypicras-3-en-16-one;Bruceine E;WST 63;Brucein E;2-<em>O</em>-Demethylbruceine M;20-Deoxybruceine F",
    "duplicated_cas_no": "29099-53-4",
    "SMILES": "O[C@]12[C@@]34[C@@]([C@]5(C)[C@@](C[C@]3(OC(=O)[C@@H]1O)[H])(C(C)=C[C@H](O)[C@H]5O)[H])([C@@H](O)[C@H](O)[C@@]2(C)OC4)[H]",
    "meta_data": {
        "InChI": "InChI=1S/C20H28O9/c1-7-4-9(21)13(23)17(2)8(7)5-10-19-6-28-18(3,14(24)11(22)12(17)19)20(19,27)15(25)16(26)29-10/h4,8-15,21-25,27H,5-6H2,1-3H3/t8-,9-,10+,11+,12+,13+,14-,15-,17-,18+,19+,20+/m0/s1",
        "InChIKey": null,
        "Canonical SMILES": "O=C1OC2CC3C(=CC(O)C(O)C3(C)C4C(O)C(O)C5(OCC24C5(O)C1O)C)C",
        "Molecular Formula": "C<sub>20</sub>H<sub>28</sub>O<sub>9</sub>",
        "Molecular Mass": "412.43",
        "Melting Point": "260-264 °C"
    }
}