{
    "cas_no": "36622-28-3",
    "key_name": "(-)-Verapamil hydrochloride",
    "cn_name": "S-维拉帕米;",
    "alternate_name": "Benzeneacetonitrile, α-[3-[[2-(3,4-dimethoxyphenyl)ethyl]methylamino]propyl]-3,4-dimethoxy-α-(1-methylethyl)-, hydrochloride (1:1), (α<em>S</em>)-;Benzeneacetonitrile, α-[3-[[2-(3,4-dimethoxyphenyl)ethyl]methylamino]propyl]-3,4-dimethoxy-α-(1-methylethyl)-, monohydrochloride, (<em>S</em>)-;Benzeneacetonitrile, α-[3-[[2-(3,4-dimethoxyphenyl)ethyl]methylamino]propyl]-3,4-dimethoxy-α-(1-methylethyl)-, monohydrochloride, (α<em>S</em>)-;(-)-Verapamil hydrochloride;LU 33926;(<em>S</em>)-Verapamil hydrochloride",
    "duplicated_cas_no": "",
    "SMILES": "[C@@](CCCN(CCC1=CC(OC)=C(OC)C=C1)C)(C(C)C)(C#N)C2=CC(OC)=C(OC)C=C2.Cl",
    "meta_data": {
        "InChI": "InChI=1S/C27H38N2O4.ClH/c1-20(2)27(19-28,22-10-12-24(31-5)26(18-22)33-7)14-8-15-29(3)16-13-21-9-11-23(30-4)25(17-21)32-6;/h9-12,17-18,20H,8,13-16H2,1-7H3;1H/t27-;/m0./s1",
        "InChIKey": null,
        "Canonical SMILES": "Cl.N#CC(C1=CC=C(OC)C(OC)=C1)(CCCN(C)CCC2=CC=C(OC)C(OC)=C2)C(C)C",
        "Molecular Formula": "C<sub>27</sub>H<sub>38</sub>N<sub>2</sub>O<sub>4</sub>.ClH",
        "Molecular Mass": "",
        "Melting Point": "131-133 °C"
    }
}