{
    "cas_no": "1743-60-8",
    "key_name": "Estradiol, 17-acetate",
    "cn_name": "17beta-雌二醇17-乙酸酯;1,3,5(10)-雌甾三烯-3,17b-二醇17-乙酸酯;",
    "alternate_name": "Estra-1,3,5(10)-triene-3,17-diol (17β)-, 17-acetate;Estradiol, 17-acetate;Estra-1,3,5(10)-triene-3,17β-diol 17-acetate;17β-Estradiol 17-acetate;Estradiol 17-monoacetate;17β-Acetylestradiol;β-Estradiol 17-acetate;17β-Acetoxyestra-1,3,5(10)-trien-3-ol",
    "duplicated_cas_no": "",
    "SMILES": "C[C@@]12[C@]([C@]3([C@](CC1)(C=4C(CC3)=CC(O)=CC4)[H])[H])(CC[C@@H]2OC(C)=O)[H]",
    "meta_data": {
        "InChI": "InChI=1S/C20H26O3/c1-12(21)23-19-8-7-18-17-5-3-13-11-14(22)4-6-15(13)16(17)9-10-20(18,19)2/h4,6,11,16-19,22H,3,5,7-10H2,1-2H3/t16-,17-,18+,19+,20+/m1/s1",
        "InChIKey": null,
        "Canonical SMILES": "O=C(OC1CCC2C3CCC4=CC(O)=CC=C4C3CCC12C)C",
        "Molecular Formula": "C<sub>20</sub>H<sub>26</sub>O<sub>3</sub>",
        "Molecular Mass": "314.42",
        "Melting Point": "210 °C"
    }
}