{
    "cas_no": "122-97-4",
    "key_name": "Benzenepropanol",
    "cn_name": "3-苯丙醇;氢化肉桂醇;3-苯基-1-丙醇;",
    "alternate_name": "Benzenepropanol;1-Propanol, 3-phenyl-;Hydrocinnamic alcohol;Hydrocinnamyl alcohol;3-Phenyl-<em>n</em>-propanol;3-Phenyl-1-propanol;3-Phenylpropanol;3-Phenylpropyl alcohol;γ-Phenylpropanol;γ-Phenylpropyl alcohol;(3-Hydroxypropyl)benzene;3-Benzenepropanol;1-Hydroxy-3-phenylpropane;NSC 16942;3-Hydroxy-1-phenylpropane;Dihydrocinnamyl alcohol;Dihydrocinnamic alcohol",
    "duplicated_cas_no": "",
    "SMILES": "C(CCO)C1=CC=CC=C1",
    "meta_data": {
        "InChI": "InChI=1S/C9H12O/c10-8-4-7-9-5-2-1-3-6-9/h1-3,5-6,10H,4,7-8H2",
        "InChIKey": null,
        "Canonical SMILES": "OCCCC=1C=CC=CC1",
        "Molecular Formula": "C<sub>9</sub>H<sub>12</sub>O",
        "Molecular Mass": "136.19",
        "Boiling Point": "235 °C",
        "Melting Point": "&lt;-18 °C",
        "Density": "1.006 g/cm³ @ Temp: 24 °C"
    }
}