{
    "cas_no": "423-39-2",
    "key_name": "Perfluorobutyl iodide",
    "cn_name": "全氟碘代丁烷;九氟-4-碘代丁烷;",
    "alternate_name": "Butane, 1,1,1,2,2,3,3,4,4-nonafluoro-4-iodo-;Butane, nonafluoro-1-iodo-;1,1,1,2,2,3,3,4,4-Nonafluoro-4-iodobutane;Perfluorobutyl iodide;Nonafluorobutyl iodide;1-Iodoperfluorobutane;Nonafluoro-1-iodobutane;1-Iodononafluorobutane;Perfluoro-<em>n</em>-butyl iodide;1,1,2,2,3,3,4,4,4-Nonafluoro-1-iodobutane;4-Iodoperfluorobutane;Nonafluoro-<em>n</em>-butyl iodide;1-Iodo-1,1,2,2,3,3,4,4,4-nonafluorobutane;1,1,2,2,3,3,4,4,4-Nonafluorobutyl iodide",
    "duplicated_cas_no": "",
    "SMILES": "C(C(C(F)(F)I)(F)F)(C(F)(F)F)(F)F",
    "meta_data": {
        "InChI": "InChI=1S/C4F9I/c5-1(6,3(9,10)11)2(7,8)4(12,13)14",
        "InChIKey": null,
        "Canonical SMILES": "FC(F)(F)C(F)(F)C(F)(F)C(F)(F)I",
        "Molecular Formula": "C<sub>4</sub>F<sub>9</sub>I",
        "Molecular Mass": "345.93",
        "Boiling Point": "67 °C",
        "Melting Point": "-68 °C"
    }
}