{
    "cas_no": "2040-01-9",
    "key_name": "1-(2,3,4,5,6-Pentamethylphenyl)ethanone",
    "cn_name": null,
    "alternate_name": "Ethanone, 1-(2,3,4,5,6-pentamethylphenyl)-;Acetophenone, 2′,3′,4′,5′,6′-pentamethyl-;Ethanone, 1-(pentamethylphenyl)-;Acetophenone, 2,3,4,5,6-pentamethyl-;1-(2,3,4,5,6-Pentamethylphenyl)ethanone;2′,3′,4′,5′,6′-Pentamethylacetophenone;Acetylpentamethylbenzene;Methyl 2,3,4,5,6-pentamethylphenyl ketone;2,3,4,5,6-Pentamethylacetophenone;1-(Pentamethylphenyl)ethan-1-one;1-(2,3,4,5,6-Pentamethylphenyl)ethan-1-one",
    "duplicated_cas_no": "",
    "SMILES": "C(C)(=O)C1=C(C)C(C)=C(C)C(C)=C1C",
    "meta_data": {
        "InChI": "InChI=1S/C13H18O/c1-7-8(2)10(4)13(12(6)14)11(5)9(7)3/h1-6H3",
        "InChIKey": null,
        "Canonical SMILES": "O=C(C=1C(=C(C(=C(C1C)C)C)C)C)C",
        "Molecular Formula": "C<sub>13</sub>H<sub>18</sub>O",
        "Molecular Mass": "190.28",
        "Boiling Point": "144-145 °C @ Press: 8 Torr",
        "Melting Point": "110 °C"
    }
}