{
    "cas_no": "533-73-3",
    "key_name": "1,2,4-Benzenetriol",
    "cn_name": "1,2,4-苯三酚;1,2,4-苯三醇;1,2,4-三羟基苯;偏苯三酚;",
    "alternate_name": "1,2,4-Benzenetriol;Hydroxyhydroquinone;1,2,4-Trihydroxybenzene;2,5-Dihydroxyphenol;1,3,4-Trihydroxybenzene;1,3,4-Benzenetriol;2-Hydroxy-1,4-hydroquinone;2-Hydroxy-<em>p</em>-benzohydroquinone;4-Hydroxycatechol;HHQ;NSC 2818;2-Hydroxyhydroquinone;1,2,5-Benzenetriol",
    "duplicated_cas_no": "",
    "SMILES": "OC1=C(O)C=CC(O)=C1",
    "meta_data": {
        "InChI": "InChI=1S/C6H6O3/c7-4-1-2-5(8)6(9)3-4/h1-3,7-9H",
        "InChIKey": null,
        "Canonical SMILES": "OC1=CC=C(O)C(O)=C1",
        "Molecular Formula": "C<sub>6</sub>H<sub>6</sub>O<sub>3</sub>",
        "Molecular Mass": "126.11",
        "Boiling Point": "165 °C @ Press: 4 Torr",
        "Melting Point": "140.5 °C"
    }
}