{
    "cas_no": "4109-96-0",
    "key_name": "Dichlorosilane",
    "cn_name": "二氯硅烷;",
    "alternate_name": "Silane, dichloro-;Dichlorosilane;Silicon chloride hydride (SiH<sub>2</sub>Cl<sub>2</sub>);Silicon chloride hydride (SiCl<sub>2</sub>H<sub>2</sub>);Dichlorosilane(SiH<sub>2</sub>Cl<sub>2</sub>);Silicon chloride hydride (Cl<sub>2</sub>H<sub>2</sub>Si)",
    "duplicated_cas_no": "438546-17-9",
    "SMILES": "[SiH2](Cl)Cl",
    "meta_data": {
        "InChI": "InChI=1S/Cl2H2Si/c1-3-2/h3H2",
        "InChIKey": null,
        "Canonical SMILES": "Cl[SiH2]Cl",
        "Molecular Formula": "Cl<sub>2</sub>H<sub>2</sub>Si",
        "Molecular Mass": "101.01",
        "Boiling Point": "8 °C",
        "Melting Point": "-122 °C",
        "Density": "1.220 g/cm³ @ Temp: 7 °C"
    }
}