{
    "cas_no": "16630-52-7",
    "key_name": "3-(Methylthio)butanal",
    "cn_name": "3-甲硫基丁醛;",
    "alternate_name": "Butanal, 3-(methylthio)-;Butyraldehyde, 3-(methylthio)-;3-(Methylthio)butanal;β-(Methylthio)butyraldehyde;3-(Methylthio)butyraldehyde;3-Methylsulfanylbutyraldehyde;3-Methylsulfanylbutanal",
    "duplicated_cas_no": "",
    "SMILES": "C(CC=O)(SC)C",
    "meta_data": {
        "InChI": "InChI=1S/C5H10OS/c1-5(7-2)3-4-6/h4-5H,3H2,1-2H3",
        "InChIKey": null,
        "Canonical SMILES": "O=CCC(SC)C",
        "Molecular Formula": "C<sub>5</sub>H<sub>10</sub>OS",
        "Molecular Mass": "118.20",
        "Boiling Point": "40 °C @ Press: 2.5 Torr",
        "Density": "0.997 g/cm³ @ Temp: 20 °C"
    }
}