{
    "cas_no": "4455-26-9",
    "key_name": "<em>N</em>-Methyl-<em>N</em>-octyl-1-octanamine",
    "cn_name": "二辛基甲胺;N-甲基二正辛胺;双辛烷基甲基叔胺;",
    "alternate_name": "1-Octanamine, <em>N</em>-methyl-<em>N</em>-octyl-;Dioctylamine, <em>N</em>-methyl-;<em>N</em>-Methyl-<em>N</em>-octyl-1-octanamine;Methyldioctylamine;<em>N</em>-Methyldioctylamine;Dioctylmethylamine;Di-<em>n</em>-octylmethylamine;<em>N</em>,<em>N</em>-Dioctyl-<em>N</em>-methylamine;<em>N</em>-Methyl-<em>N</em>-octyloctan-1-amine;<em>N</em>,<em>N</em>-Dioctylmethylamine;<em>N</em>-Methyl-<em>N</em>,<em>N</em>-dioctylamine",
    "duplicated_cas_no": "",
    "SMILES": "N(CCCCCCCC)(CCCCCCCC)C",
    "meta_data": {
        "InChI": "InChI=1S/C17H37N/c1-4-6-8-10-12-14-16-18(3)17-15-13-11-9-7-5-2/h4-17H2,1-3H3",
        "InChIKey": null,
        "Canonical SMILES": "N(C)(CCCCCCCC)CCCCCCCC",
        "Molecular Formula": "C<sub>17</sub>H<sub>37</sub>N",
        "Molecular Mass": "255.48",
        "Boiling Point": "136-138 °C",
        "Melting Point": "-30.1 °C",
        "Density": "0.8006 g/cm³ @ Temp: 20 °C"
    }
}