{
    "cas_no": "106-91-2",
    "key_name": "Glycidyl methacrylate",
    "cn_name": "甲基丙烯酸缩水甘油酯;甲基丙烯酸失水甘油酯;",
    "alternate_name": "2-Propenoic acid, 2-methyl-, 2-oxiranylmethyl ester;Methacrylic acid, 2,3-epoxypropyl ester;2-Propenoic acid, 2-methyl-, oxiranylmethyl ester;Glycidyl α-methylacrylate;2,3-Epoxypropyl methacrylate;Glycidol methacrylate;Glycidyl methacrylate;Blemmer G;Epoxypropyl methacrylate;Acryester G;SY-Monomer G;Blemmer GMA;2-[(Methacryloyloxy)methyl]oxirane;Light Ester G;SR 379;Sartomer 379;(±)-Glycidyl methacrylate;Blemmer GP;3-Methacryloyloxy-1,2-epoxypropane;Blemmer GS;NSC 24156;NSC 67195;Methacryloyloxymethyloxirane;Blemmer GH-LC;2-Methylacrylic acid oxiranylmethyl ester;Sartomer SR 379;M 0590;Blemmer GH;Acryester GMA;Acryester GU;EM 54;Oxiran-2-ylmethyl methacrylate;2-Oxiranylmethyl 2-methylacrylate;H 299431;GMA 1618;Merck 2506;Light Acrylate G",
    "duplicated_cas_no": "55279-88-4;89678-75-1;96778-02-8;98104-93-9;117955-24-5;122785-80-2;126872-19-3;169957-95-3;201732-55-0;202149-12-0;203300-26-9;210093-72-4;865699-83-8;1451188-70-7",
    "SMILES": "C(OC(C(C)=C)=O)C1CO1",
    "meta_data": {
        "InChI": "InChI=1S/C7H10O3/c1-5(2)7(8)10-4-6-3-9-6/h6H,1,3-4H2,2H3",
        "InChIKey": null,
        "Canonical SMILES": "O=C(OCC1OC1)C(=C)C",
        "Molecular Formula": "C<sub>7</sub>H<sub>10</sub>O<sub>3</sub>",
        "Molecular Mass": "142.15",
        "Boiling Point": "189 °C",
        "Density": "1.0776 g/cm³"
    }
}