{
    "cas_no": "54232-59-6",
    "key_name": "9-Oxo-10<em>E</em>,12<em>Z</em>-octadecadienoic acid",
    "cn_name": null,
    "alternate_name": "10,12-Octadecadienoic acid, 9-oxo-, (10<em>E</em>,12<em>Z</em>)-;10,12-Octadecadienoic acid, 9-oxo-, (<em>E</em>,<em>Z</em>)-;(10<em>E</em>,12<em>Z</em>)-9-Oxo-10,12-octadecadienoic acid;9-Oxo-10<em>E</em>,12<em>Z</em>-octadecadienoic acid;9-Oxo-ODE;(E,Z)-9-Oxo-10,12-octadecadienoic acid",
    "duplicated_cas_no": "",
    "SMILES": "C(C(/C=C/C=C\\CCCCC)=O)CCCCCCC(O)=O",
    "meta_data": {
        "InChI": "InChI=1S/C18H30O3/c1-2-3-4-5-6-8-11-14-17(19)15-12-9-7-10-13-16-18(20)21/h6,8,11,14H,2-5,7,9-10,12-13,15-16H2,1H3,(H,20,21)/b8-6-,14-11+",
        "InChIKey": null,
        "Canonical SMILES": "O=C(O)CCCCCCCC(=O)C=CC=CCCCCC",
        "Molecular Formula": "C<sub>18</sub>H<sub>30</sub>O<sub>3</sub>",
        "Molecular Mass": "294.43",
        "Melting Point": "49.5-51.5 °C"
    }
}