{
    "cas_no": "5701-82-6",
    "key_name": "Tetra-<em>O</em>-methyl nordihydroguaiaretic acid",
    "cn_name": "Terameprocol;meso-1,4-双(3,4-二甲氧基苯基)二甲基丁烷;",
    "alternate_name": "Benzene, 4-[4-(3,4-dimethoxyphenyl)-2,3-dimethylbutyl]-1,2-dimethoxy-;Butane, 1,4-bis(3,4-dimethoxyphenyl)-2,3-dimethyl-;Benzene, 1,1′-(2,3-dimethyl-1,4-butanediyl)bis[3,4-dimethoxy-;4-[4-(3,4-Dimethoxyphenyl)-2,3-dimethylbutyl]-1,2-dimethoxybenzene;Dimethyldihydroguaiaretic acid;1,4-Bis(3,4-dimethoxyphenyl)-2,3-dimethylbutane;NSC 136955;Tetra-<em>O</em>-methyl nordihydroguaiaretic acid",
    "duplicated_cas_no": "",
    "SMILES": "O(C)C1=C(OC)C=CC(CC(C(CC2=CC(OC)=C(OC)C=C2)C)C)=C1",
    "meta_data": {
        "InChI": "InChI=1S/C22H30O4/c1-15(11-17-7-9-19(23-3)21(13-17)25-5)16(2)12-18-8-10-20(24-4)22(14-18)26-6/h7-10,13-16H,11-12H2,1-6H3",
        "InChIKey": null,
        "Canonical SMILES": "O(C1=CC=C(C=C1OC)CC(C)C(C)CC2=CC=C(OC)C(OC)=C2)C",
        "Molecular Formula": "C<sub>22</sub>H<sub>30</sub>O<sub>4</sub>",
        "Molecular Mass": "358.47",
        "Melting Point": "101-102 °C"
    }
}