{
    "cas_no": "3019-71-4",
    "key_name": "Trichloroacetyl isocyanate",
    "cn_name": "三氯乙酰异氰酸酯;",
    "alternate_name": "Acetyl isocyanate, 2,2,2-trichloro-;Acetyl isocyanate, trichloro-;Acetic acid, trichloro-, anhydride with isocyanic acid;Isocyanic acid, anhydride with trichloroacetic acid;2,2,2-Trichloroacetyl isocyanate;Trichloroacetyl isocyanate;α,α,α-Trichloroacetyl isocyanate",
    "duplicated_cas_no": "82631-56-9",
    "SMILES": "C(C(Cl)(Cl)Cl)(N=C=O)=O",
    "meta_data": {
        "InChI": "InChI=1S/C3Cl3NO2/c4-3(5,6)2(9)7-1-8",
        "InChIKey": null,
        "Canonical SMILES": "O=C=NC(=O)C(Cl)(Cl)Cl",
        "Molecular Formula": "C<sub>3</sub>Cl<sub>3</sub>NO<sub>2</sub>",
        "Molecular Mass": "188.40",
        "Boiling Point": "80-85 °C @ Press: 20 Torr",
        "Melting Point": "135-140 °C"
    }
}