{
    "cas_no": "1454-84-8",
    "key_name": "1-Nonadecanol",
    "cn_name": "十九醇;",
    "alternate_name": "1-Nonadecanol;<em>n</em>-1-Nonadecanol;<em>n</em>-Nonadecanol;Nonadecyl alcohol",
    "duplicated_cas_no": "",
    "SMILES": "C(CCCCCCCCCO)CCCCCCCCC",
    "meta_data": {
        "InChI": "InChI=1S/C19H40O/c1-2-3-4-5-6-7-8-9-10-11-12-13-14-15-16-17-18-19-20/h20H,2-19H2,1H3",
        "InChIKey": null,
        "Canonical SMILES": "OCCCCCCCCCCCCCCCCCCC",
        "Molecular Formula": "C<sub>19</sub>H<sub>40</sub>O",
        "Molecular Mass": "284.52",
        "Boiling Point": "204-217 °C @ Press: 3 Torr",
        "Melting Point": "63.3 °C"
    }
}