{
    "cas_no": "326-66-9",
    "key_name": "<em>N</em>-(4-Bromo-2-fluorophenyl)acetamide",
    "cn_name": "4-溴-2-氟乙酰苯胺;",
    "alternate_name": "Acetamide, <em>N</em>-(4-bromo-2-fluorophenyl)-;Acetanilide, 4′-bromo-2′-fluoro-;<em>N</em>-(4-Bromo-2-fluorophenyl)acetamide;4′-Bromo-2′-fluoroacetanilide;<em>N</em>-Acetyl-4-bromo-2-fluoroaniline;4-Acetamido-3-fluoro-1-bromobenzene;2′-Fluoro-4′-bromoacetanilide;(4-Bromo-2-fluorophenyl)acetamide",
    "duplicated_cas_no": "",
    "SMILES": "N(C(C)=O)C1=C(F)C=C(Br)C=C1",
    "meta_data": {
        "InChI": "InChI=1S/C8H7BrFNO/c1-5(12)11-8-3-2-6(9)4-7(8)10/h2-4H,1H3,(H,11,12)",
        "InChIKey": null,
        "Canonical SMILES": "O=C(NC1=CC=C(Br)C=C1F)C",
        "Molecular Formula": "C<sub>8</sub>H<sub>7</sub>BrFNO",
        "Molecular Mass": "232.05",
        "Melting Point": "158-160 °C"
    }
}