{
    "cas_no": "1878-65-5",
    "key_name": "(3-Chlorophenyl)acetic acid",
    "cn_name": "3-氯苯乙酸;间氯苯乙酸;",
    "alternate_name": "Benzeneacetic acid, 3-chloro-;Acetic acid, (<em>m</em>-chlorophenyl)-;3-Chlorobenzeneacetic acid;(<em>m</em>-Chlorophenyl)acetic acid;2-(3-Chlorophenyl)acetic acid;NSC 87556;(3-Chlorophenyl)acetic acid;<em>m</em>-Chlorobenzeneacetic acid",
    "duplicated_cas_no": "",
    "SMILES": "C(C(O)=O)C1=CC(Cl)=CC=C1",
    "meta_data": {
        "InChI": "InChI=1S/C8H7ClO2/c9-7-3-1-2-6(4-7)5-8(10)11/h1-4H,5H2,(H,10,11)",
        "InChIKey": null,
        "Canonical SMILES": "O=C(O)CC=1C=CC=C(Cl)C1",
        "Molecular Formula": "C<sub>8</sub>H<sub>7</sub>ClO<sub>2</sub>",
        "Molecular Mass": "170.59",
        "Melting Point": "78-79.5 °C",
        "Density": "1.19 g/cm³"
    }
}