{
    "cas_no": "13380-89-7",
    "key_name": "Octahydro-4,7-methano-1<em>H</em>-inden-5-ol",
    "cn_name": null,
    "alternate_name": "4,7-Methano-1<em>H</em>-inden-5-ol, octahydro-;4,7-Methanoindan-5-ol, hexahydro-;Octahydro-4,7-methano-1<em>H</em>-inden-5-ol;Tricyclo[5.2.1.0<sup>2,6</sup>]decan-8-ol;NSC 22466;Hydroxytetrahydrodicyclopentadiene;Tricyclo[5.2.1.0<sup>6,2</sup>]decan-9-ol",
    "duplicated_cas_no": "15904-95-7",
    "SMILES": "OC1C2C3C(C(C2)C1)CCC3",
    "meta_data": {
        "InChI": "InChI=1S/C10H16O/c11-10-5-6-4-9(10)8-3-1-2-7(6)8/h6-11H,1-5H2",
        "InChIKey": null,
        "Canonical SMILES": "OC1CC2CC1C3CCCC23",
        "Molecular Formula": "C<sub>10</sub>H<sub>16</sub>O",
        "Molecular Mass": "152.23",
        "Boiling Point": "110-120 °C @ Press: 3 Torr",
        "Melting Point": "120-121 °C"
    }
}