{
    "cas_no": "29096-60-4",
    "key_name": "1-(2-Methylimidazo[1,2-<em>a</em>]pyridin-3-yl)ethanone",
    "cn_name": null,
    "alternate_name": "Ethanone, 1-(2-methylimidazo[1,2-<em>a</em>]pyridin-3-yl)-;Ketone, methyl 2-methylimidazo[1,2-<em>a</em>]pyridin-3-yl;Imidazo[1,2-<em>a</em>]pyridine, ethanone deriv.;1-(2-Methylimidazo[1,2-<em>a</em>]pyridin-3-yl)ethanone;2-Methyl-3-acetylimidazo[1,2-<em>a</em>]pyridine;3-Acetyl-2-methylimidazo[1,2-<em>a</em>]pyridine;1-(2-Methylimidazo[1,2-<em>a</em>]pyridin-3-yl)-1-ethanone;1-(2-Methylimidazo[1,2-<em>a</em>]pyridin-3-yl)acetyl",
    "duplicated_cas_no": "",
    "SMILES": "C(C)(=O)C=1N2C(=NC1C)C=CC=C2",
    "meta_data": {
        "InChI": "InChI=1S/C10H10N2O/c1-7-10(8(2)13)12-6-4-3-5-9(12)11-7/h3-6H,1-2H3",
        "InChIKey": null,
        "Canonical SMILES": "O=C(C1=C(N=C2C=CC=CN21)C)C",
        "Molecular Formula": "C<sub>10</sub>H<sub>10</sub>N<sub>2</sub>O",
        "Molecular Mass": "174.20",
        "Melting Point": "105-106 °C"
    }
}