{
    "cas_no": "1774-35-2",
    "key_name": "1,1′-Sulfinylbis[4-methylbenzene]",
    "cn_name": "4,4\"-二甲苯亚砜;",
    "alternate_name": "Benzene, 1,1′-sulfinylbis[4-methyl-;<em>p</em>-Tolyl sulfoxide;1,1′-Sulfinylbis[4-methylbenzene];4,4′-Ditolyl sulfoxide;Di-<em>p</em>-tolyl sulfoxide;Bis(4-methylphenyl) sulfoxide;4,4′-Dimethyldiphenyl sulfoxide;Di-4-tolyl sulfoxide;Bis(<em>p</em>-methylphenyl) sulfoxide;NSC 73128;4,4′-Sulfinylbis(methylbenzene);1-Methyl-4-(4-methylphenyl)sulfinylbenzene",
    "duplicated_cas_no": "",
    "SMILES": "S(=O)(C1=CC=C(C)C=C1)C2=CC=C(C)C=C2",
    "meta_data": {
        "InChI": "InChI=1S/C14H14OS/c1-11-3-7-13(8-4-11)16(15)14-9-5-12(2)6-10-14/h3-10H,1-2H3",
        "InChIKey": null,
        "Canonical SMILES": "O=S(C1=CC=C(C=C1)C)C2=CC=C(C=C2)C",
        "Molecular Formula": "C<sub>14</sub>H<sub>14</sub>OS",
        "Molecular Mass": "230.33",
        "Melting Point": "93 °C"
    }
}