{
    "cas_no": "111-82-0",
    "key_name": "Methyl laurate",
    "cn_name": "月桂酸甲酯;十二酸甲酯;",
    "alternate_name": "Dodecanoic acid, methyl ester;Lauric acid, methyl ester;Metholene 2296;Methyl dodecanoate;Methyl laurate;Methyl laurinate;Uniphat A 40;Methyl dodecylate;Methyl <em>n</em>-dodecanoate;Stepan C 40;CE 1295;Pastell M 12;Emery 2296;Texaprint SDM 100;CE 1290;Edenor ME-C 1298-100;NSC 5027;Agnique ME 1270U;Agnique ME 1290;Agnique ME 1298;Exceparl ML 85;Radia 7118",
    "duplicated_cas_no": "409108-19-6",
    "SMILES": "C(CCC(OC)=O)CCCCCCCC",
    "meta_data": {
        "InChI": "InChI=1S/C13H26O2/c1-3-4-5-6-7-8-9-10-11-12-13(14)15-2/h3-12H2,1-2H3",
        "InChIKey": null,
        "Canonical SMILES": "O=C(OC)CCCCCCCCCCC",
        "Molecular Formula": "C<sub>13</sub>H<sub>26</sub>O<sub>2</sub>",
        "Molecular Mass": "214.34",
        "Boiling Point": "267 °C",
        "Melting Point": "5.2 °C",
        "Density": "0.8702 g/cm³ @ Temp: 20 °C"
    }
}