{
    "cas_no": "1120-99-6",
    "key_name": "3-Amino-1,2,4-triazine",
    "cn_name": "3-氨基-1,2,4-三嗪;1,2,4-三嗪-3-胺;3-氨基-1,2,4-三嗪;",
    "alternate_name": "1,2,4-Triazin-3-amine;<em>as</em>-Triazine, 3-amino-;3-Amino-1,2,4-triazine;NSC 203233;3-Amino-<em>as</em>-triazine;[1,2,4]Triazin-3-ylamine",
    "duplicated_cas_no": "",
    "SMILES": "NC=1N=CC=NN1",
    "meta_data": {
        "InChI": "InChI=1S/C3H4N4/c4-3-5-1-2-6-7-3/h1-2H,(H2,4,5,7)",
        "InChIKey": null,
        "Canonical SMILES": "N=1N=C(N=CC1)N",
        "Molecular Formula": "C<sub>3</sub>H<sub>4</sub>N<sub>4</sub>",
        "Molecular Mass": "96.09",
        "Melting Point": "171.5-172.5 °C"
    }
}