{
    "cas_no": "22303-36-2",
    "key_name": "2-Chloro-<em>N</em>-(4-methoxyphenyl)acetamide",
    "cn_name": null,
    "alternate_name": "Acetamide, 2-chloro-<em>N</em>-(4-methoxyphenyl)-;<em>p</em>-Acetanisidide, 2-chloro-;2-Chloro-<em>N</em>-(4-methoxyphenyl)acetamide;2-Chloro-4′-methoxyacetanilide;2-Chloro-<em>N</em>-<em>p</em>-anisylacetamide;<em>N</em>-Chloroacetyl-4-methoxyaniline;<em>N</em>-(<em>p</em>-Anisyl)chloroacetamide;2-Chloro-<em>p</em>-acetanisidide;<em>N</em>-(<em>p</em>-Methoxyphenyl)chloroacetamide;<em>N</em>-(4-Anisyl)chloroacetamide;NSC 8373;α-Chloro-<em>p</em>-methoxyacetanilide;<em>N</em>-(4-Methoxyphenyl)-2-chloroacetamide",
    "duplicated_cas_no": "",
    "SMILES": "N(C(CCl)=O)C1=CC=C(OC)C=C1",
    "meta_data": {
        "InChI": "InChI=1S/C9H10ClNO2/c1-13-8-4-2-7(3-5-8)11-9(12)6-10/h2-5H,6H2,1H3,(H,11,12)",
        "InChIKey": null,
        "Canonical SMILES": "O=C(NC1=CC=C(OC)C=C1)CCl",
        "Molecular Formula": "C<sub>9</sub>H<sub>10</sub>ClNO<sub>2</sub>",
        "Molecular Mass": "199.63",
        "Melting Point": "121.5-122.5 °C"
    }
}