{
    "cas_no": "3878-19-1",
    "key_name": "Fuberidazole",
    "cn_name": "2-(2-呋喃基)-苯并咪;糠其苯并咪唑;",
    "alternate_name": "1<em>H</em>-Benzimidazole, 2-(2-furanyl)-;Benzimidazole, 2-(2-furyl)-;2-(2-Furanyl)-1<em>H</em>-benzimidazole;Furidazole;2-(2-Furyl)benzimidazole;B 33172;Bayer 33172;Fuberidazol;Voronit;BAY 33172;Fuberidazole;Furidazol;2-(2′-Furyl)benzimidazole;PF 7402;2-(2-Furanyl)benzimidazole;NSC 72670;2-(Furan-2-yl)benzimidazole;2-(2′-Furanyl)benzimidazole;2-(Furan-2-yl)-1<em>H</em>-benzo[<em>d</em>]imidazole;2-(Furan-2-yl)-1<em>H</em>-1,3-benzodiazole;2-(2-Furyl)-1<em>H</em>-benzimidazole",
    "duplicated_cas_no": "1135441-28-9",
    "SMILES": "C=1(NC=2C(N1)=CC=CC2)C3=CC=CO3",
    "meta_data": {
        "InChI": "InChI=1S/C11H8N2O/c1-2-5-9-8(4-1)12-11(13-9)10-6-3-7-14-10/h1-7H,(H,12,13)",
        "InChIKey": null,
        "Canonical SMILES": "N=1C=2C=CC=CC2NC1C=3OC=CC3",
        "Molecular Formula": "C<sub>11</sub>H<sub>8</sub>N<sub>2</sub>O",
        "Molecular Mass": "184.19",
        "Melting Point": "292 °C (decomp)"
    }
}