{
    "cas_no": "2198-58-5",
    "key_name": "<em>N</em>,<em>N</em>-Diethyl-<em>p</em>-phenylenediamine hydrochloride",
    "cn_name": "N,N-二乙基对苯二胺盐酸盐;",
    "alternate_name": "1,4-Benzenediamine, <em>N</em><sup>1</sup>,<em>N</em><sup>1</sup>-diethyl-, hydrochloride (1:1);<em>p</em>-Phenylenediamine, <em>N</em>,<em>N</em>-diethyl-, monohydrochloride;1,4-Benzenediamine, <em>N</em>,<em>N</em>-diethyl-, monohydrochloride;<em>N</em>,<em>N</em>-Diethyl-<em>p</em>-phenylenediamine hydrochloride;<em>N</em>,<em>N</em>-Diethyl-<em>p</em>-phenylenediamine monohydrochloride;CD 1;CD 1 (amine)",
    "duplicated_cas_no": "",
    "SMILES": "N(CC)(CC)C1=CC=C(N)C=C1.Cl",
    "meta_data": {
        "InChI": "InChI=1S/C10H16N2.ClH/c1-3-12(4-2)10-7-5-9(11)6-8-10;/h5-8H,3-4,11H2,1-2H3;1H",
        "InChIKey": null,
        "Canonical SMILES": "Cl.NC1=CC=C(C=C1)N(CC)CC",
        "Molecular Formula": "C<sub>10</sub>H<sub>16</sub>N<sub>2</sub>.ClH",
        "Molecular Mass": "",
        "Melting Point": "222-223 °C"
    }
}