{
    "cas_no": "476-69-7",
    "key_name": "(+)-Corydine",
    "cn_name": "紫?定酚;紫?定酚;",
    "alternate_name": "4<em>H</em>-Dibenzo[<em>de</em>,<em>g</em>]quinolin-1-ol, 5,6,6a,7-tetrahydro-2,10,11-trimethoxy-6-methyl-, (6a<em>S</em>)-;Corydine;6aα-Aporphin-1-ol, 2,10,11-trimethoxy-;4<em>H</em>-Dibenzo[<em>de</em>,<em>g</em>]quinolin-1-ol, 5,6,6a,7-tetrahydro-2,10,11-trimethoxy-6-methyl-, (<em>S</em>)-;(6a<em>S</em>)-5,6,6a,7-Tetrahydro-2,10,11-trimethoxy-6-methyl-4<em>H</em>-dibenzo[<em>de</em>,<em>g</em>]quinolin-1-ol;<em>O</em><sup>11</sup>-Methylcorytuberine;<em>d</em>-Corydine;(+)-Corydine;1-Hydroxy-2,10,11-trimethoxy-6aα-aporphine;2,10,11-Trimethoxy-6aα-aporphin-1-ol;Glaucentrine;Glaucentrin;(<em>S</em>)-(+)-Corydine",
    "duplicated_cas_no": "5986-04-9",
    "SMILES": "OC1=C2C=3[C@](CC=4C2=C(OC)C(OC)=CC4)(N(C)CCC3C=C1OC)[H]",
    "meta_data": {
        "InChI": "InChI=1S/C20H23NO4/c1-21-8-7-12-10-15(24-3)19(22)18-16(12)13(21)9-11-5-6-14(23-2)20(25-4)17(11)18/h5-6,10,13,22H,7-9H2,1-4H3/t13-/m0/s1",
        "InChIKey": null,
        "Canonical SMILES": "OC1=C(OC)C=C2C3=C1C4=C(OC)C(OC)=CC=C4CC3N(C)CC2",
        "Molecular Formula": "C<sub>20</sub>H<sub>23</sub>NO<sub>4</sub>",
        "Molecular Mass": "341.40",
        "Melting Point": "140 °C"
    }
}