{
    "cas_no": "123-93-3",
    "key_name": "Thiodiglycolic acid",
    "cn_name": "亚硫基二乙酸;硫代二甘酸;",
    "alternate_name": "Acetic acid, 2,2′-thiobis-;Acetic acid, thiodi-;Acetic acid, thiobis-;2,2′-Thiobis[acetic acid];Dimethylsulfide-α,α′-dicarboxylic acid;Mercaptodiacetic acid;Thiodiacetic acid;Thiodiglycolic acid;β,β′-Thiodiglycolic acid;2,2′-Thiodiglycolic acid;(Carboxymethylthio)acetic acid;Dicarboxymethyl sulfide;2,2′-Thiodiethanoic acid;2,2′-Thiodiacetic acid;NSC 28743;NSC 40469;NSC 52326;2-(Carboxymethylsulfanyl)acetic acid;2-[(Carboxymethyl)sulfanyl]acetic acid",
    "duplicated_cas_no": "",
    "SMILES": "S(CC(O)=O)CC(O)=O",
    "meta_data": {
        "InChI": "InChI=1S/C4H6O4S/c5-3(6)1-9-2-4(7)8/h1-2H2,(H,5,6)(H,7,8)",
        "InChIKey": null,
        "Canonical SMILES": "O=C(O)CSCC(=O)O",
        "Molecular Formula": "C<sub>4</sub>H<sub>6</sub>O<sub>4</sub>S",
        "Molecular Mass": "150.15",
        "Melting Point": "129 °C"
    }
}