{
    "cas_no": "3337-71-1",
    "key_name": "Asulam",
    "cn_name": "磺草灵;对氨基苯磺酰胺甲酸甲酯;",
    "alternate_name": "Carbamic acid, <em>N</em>-[(4-aminophenyl)sulfonyl]-, methyl ester;Carbamic acid, sulfanilyl-, methyl ester;Carbamic acid, [(4-aminophenyl)sulfonyl]-, methyl ester;Methyl 4-aminobenzenesulfonylcarbamate;M and B 9057;Asulam;MB 9057;Methyl (4-aminophenylsulfonyl)carbamate;<em>N</em><sup>1</sup>-Methoxycarbonylsulfanilamide;Methyl <em>p</em>-aminobenzenesulfonylcarbamate;Asulox F;Plakin;Plakin (herbicide);Rattler;Rattler (herbicide);Asilan;Methyl sulfanilylcarbamate",
    "duplicated_cas_no": "",
    "SMILES": "S(NC(OC)=O)(=O)(=O)C1=CC=C(N)C=C1",
    "meta_data": {
        "InChI": "InChI=1S/C8H10N2O4S/c1-14-8(11)10-15(12,13)7-4-2-6(9)3-5-7/h2-5H,9H2,1H3,(H,10,11)",
        "InChIKey": null,
        "Canonical SMILES": "O=C(OC)NS(=O)(=O)C1=CC=C(N)C=C1",
        "Molecular Formula": "C<sub>8</sub>H<sub>10</sub>N<sub>2</sub>O<sub>4</sub>S",
        "Molecular Mass": "230.24",
        "Melting Point": "144 °C"
    }
}