{
    "cas_no": "656-46-2",
    "key_name": "2,2-Difluoro-1,3-benzodioxole-5-carboxylic acid",
    "cn_name": "2,2-二氟-1,3-苯并二恶茂-5-甲酸;2,2-二氟-1,3-苯并二恶茂-5-羧酸;",
    "alternate_name": "1,3-Benzodioxole-5-carboxylic acid, 2,2-difluoro-;Benzoic acid, 3,4-[(difluoromethylene)dioxy]-;2,2-Difluoro-1,3-benzodioxole-5-carboxylic acid;Piperonylic acid, α,α-difluoro-;2,2-Difluoro-benzo[1,3]dioxol-5-carboxylic acid;2,2-Difluorobenzodioxole-5-carboxylic acid;2,2-Difluorobenzo[<em>d</em>][1,3]dioxole-5-carboxylic acid;2,2-Difluoro-2<em>H</em>-1,3-benzodioxole-5-carboxylic acid;2,2-Difluoro-1,3-dioxaindane-5-carboxylic acid",
    "duplicated_cas_no": "2570823-51-5",
    "SMILES": "C(O)(=O)C=1C=C2C(OC(F)(F)O2)=CC1",
    "meta_data": {
        "InChI": "InChI=1S/C8H4F2O4/c9-8(10)13-5-2-1-4(7(11)12)3-6(5)14-8/h1-3H,(H,11,12)",
        "InChIKey": null,
        "Canonical SMILES": "O=C(O)C1=CC=C2OC(F)(F)OC2=C1",
        "Molecular Formula": "C<sub>8</sub>H<sub>4</sub>F<sub>2</sub>O<sub>4</sub>",
        "Molecular Mass": "202.11",
        "Melting Point": "153-154 °C"
    }
}