{
    "cas_no": "29781-80-4",
    "key_name": "Octyl α-<span class=\"text-smallcaps\">D</span>-glucopyranoside",
    "cn_name": "正辛烷基-α-D-吡喃葡萄糖苷;",
    "alternate_name": "α-<span class=\"text-smallcaps\">D</span>-Glucopyranoside, octyl;Glucopyranoside, octyl, α-<span class=\"text-smallcaps\">D</span>-;Octyl α-<span class=\"text-smallcaps\">D</span>-glucopyranoside;1-Octyl α-<span class=\"text-smallcaps\">D</span>-glucopyranoside;α-1-<em>n</em>-Octyl-<span class=\"text-smallcaps\">D</span>-glucopyranoside;<em>n</em>-Octyl α-<span class=\"text-smallcaps\">D</span>-glucopyranoside;1-<em>O</em>-Octyl-α-<span class=\"text-smallcaps\">D</span>-glucopyranoside;Octyl α-glucoside;Octyl α-<span class=\"text-smallcaps\">D</span>-glucoside;GS-AG 8S",
    "duplicated_cas_no": "",
    "SMILES": "O(CCCCCCCC)[C@H]1O[C@H](CO)[C@@H](O)[C@H](O)[C@H]1O",
    "meta_data": {
        "InChI": "InChI=1S/C14H28O6/c1-2-3-4-5-6-7-8-19-14-13(18)12(17)11(16)10(9-15)20-14/h10-18H,2-9H2,1H3/t10-,11-,12+,13-,14+/m1/s1",
        "InChIKey": null,
        "Canonical SMILES": "OCC1OC(OCCCCCCCC)C(O)C(O)C1O",
        "Molecular Formula": "C<sub>14</sub>H<sub>28</sub>O<sub>6</sub>",
        "Molecular Mass": "292.37",
        "Melting Point": "71-72 °C"
    }
}