{
    "cas_no": "122-31-6",
    "key_name": "1,1,3,3-Tetraethoxypropane",
    "cn_name": "1,1,3,3-四乙氧基丙烷;",
    "alternate_name": "Propane, 1,1,3,3-tetraethoxy-;Malonaldehyde, bis(diethyl acetal);1,1,3,3-Tetraethoxypropane;Malonaldehyde tetraethyl diacetal;Tetraethyl malondialdehyde acetal;Malonaldehyde tetraethyl acetal;Malondialdehyde tetraethyl acetal;TEP;1,1,3,3-Tetrakis(ethoxy)propane;1,1,3,3-Triethoxypropane;NSC 17068",
    "duplicated_cas_no": "",
    "SMILES": "C(CC(OCC)OCC)(OCC)OCC",
    "meta_data": {
        "InChI": "InChI=1S/C11H24O4/c1-5-12-10(13-6-2)9-11(14-7-3)15-8-4/h10-11H,5-9H2,1-4H3",
        "InChIKey": null,
        "Canonical SMILES": "O(CC)C(OCC)CC(OCC)OCC",
        "Molecular Formula": "C<sub>11</sub>H<sub>24</sub>O<sub>4</sub>",
        "Molecular Mass": "220.31",
        "Boiling Point": "77-78 °C @ Press: 3 Torr",
        "Density": "0.916 g/cm³ @ Temp: 25 °C"
    }
}