{
    "cas_no": "399-52-0",
    "key_name": "5-Fluoroindole",
    "cn_name": "5-氟吲哚;",
    "alternate_name": "1<em>H</em>-Indole, 5-fluoro-;Indole, 5-fluoro-;5-Fluoro-1<em>H</em>-indole;5-Fluoroindole;NSC 88613",
    "duplicated_cas_no": "",
    "SMILES": "FC=1C=C2C(=CC1)NC=C2",
    "meta_data": {
        "InChI": "InChI=1S/C8H6FN/c9-7-1-2-8-6(5-7)3-4-10-8/h1-5,10H",
        "InChIKey": null,
        "Canonical SMILES": "FC=1C=CC=2NC=CC2C1",
        "Molecular Formula": "C<sub>8</sub>H<sub>6</sub>FN",
        "Molecular Mass": "135.14",
        "Melting Point": "46 °C"
    }
}