{
    "cas_no": "22323-80-4",
    "key_name": "(4<em>S</em>)-2,2-Dimethyl-1,3-dioxolane-4-carboxaldehyde",
    "cn_name": "(S)-2,2-二甲基-1,3-二氧戊环-4-甲醛;",
    "alternate_name": "1,3-Dioxolane-4-carboxaldehyde, 2,2-dimethyl-, (4<em>S</em>)-;1,3-Dioxolane-4-carboxaldehyde, 2,2-dimethyl-, <span class=\"text-smallcaps\">L</span>-;1,3-Dioxolane-4-carboxaldehyde, 2,2-dimethyl-, (<em>S</em>)-;(4<em>S</em>)-2,2-Dimethyl-1,3-dioxolane-4-carboxaldehyde;2,3-<em>O</em>-Isopropylidene-<span class=\"text-smallcaps\">L</span>-glyceraldehyde;<span class=\"text-smallcaps\">L</span>-Glyceraldehyde acetonide;(<em>S</em>)-Glyceraldehyde acetonide;(<em>S</em>)-2,3-<em>O</em>-Isopropylideneglyceraldehyde;(<em>S</em>)-Isopropylideneglyceraldehyde;(<em>S</em>)-Glyceraldehyde isopropylidene acetal;(<em>S</em>)-2,2-Dimethyl-1,3-dioxolane-4-carboxaldehyde;(<em>S</em>)-2,3-(Isopropylidenedioxy)propionaldehyde;(<em>S</em>)-2,2-Dimethyl-1,3-dioxolane-4-carbaldehyde;1,3-Dioxolane-4-carboxaldehyde 2,2-dimethyl-, (4S)-;(4S)-2,2-Dimethyl-1,3-dioxolane-4-carbaldehyde;(4S)-2,2-Dimethyl-1,3-dioxolan-4-carboxaldehyde",
    "duplicated_cas_no": "",
    "SMILES": "C(=O)[C@H]1OC(C)(C)OC1",
    "meta_data": {
        "InChI": "InChI=1S/C6H10O3/c1-6(2)8-4-5(3-7)9-6/h3,5H,4H2,1-2H3/t5-/m1/s1",
        "InChIKey": null,
        "Canonical SMILES": "O=CC1OC(OC1)(C)C",
        "Molecular Formula": "C<sub>6</sub>H<sub>10</sub>O<sub>3</sub>",
        "Molecular Mass": "130.14",
        "Boiling Point": "42-44 °C @ Press: 13 Torr"
    }
}