{
    "cas_no": "5187-82-6",
    "key_name": "Sulfonium, (2-ethoxy-2-oxoethyl)dimethyl-, bromide (1:1)",
    "cn_name": "(乙氧基羰基甲基)二甲基溴化硫鎓;(乙氧基羰基甲基)二甲基溴化硫?;",
    "alternate_name": "Sulfonium, (2-ethoxy-2-oxoethyl)dimethyl-, bromide (1:1);Sulfonium, (carboxymethyl)dimethyl-, bromide, ethyl ester;Sulfonium, (2-ethoxy-2-oxoethyl)dimethyl-, bromide;(Carboxymethyl)dimethylsulfonium bromide, ethyl ester;(Carbethoxymethyl)dimethylsulfonium bromide;(Ethoxycarbonylmethyl)dimethylsulfonium bromide;(2-Ethoxy-2-oxoethyl)(dimethyl)sulfonium bromide;(2-Ethoxy-2-oxoethyl)dimethylsulfanium bromide",
    "duplicated_cas_no": "341008-26-2",
    "SMILES": "C(C(OCC)=O)[S+](C)C.[Br-]",
    "meta_data": {
        "InChI": "InChI=1S/C6H13O2S.BrH/c1-4-8-6(7)5-9(2)3;/h4-5H2,1-3H3;1H/q+1;/p-1",
        "InChIKey": null,
        "Canonical SMILES": "[Br-].O=C(OCC)C[S+](C)C",
        "Molecular Formula": "C<sub>6</sub>H<sub>13</sub>O<sub>2</sub>S.Br",
        "Molecular Mass": "",
        "Melting Point": "112-113 °C"
    }
}