{
    "cas_no": "2941-55-1",
    "key_name": "Ethiolate",
    "cn_name": "硫草敌;硫草敌Ethiolat;",
    "alternate_name": "Carbamothioic acid, <em>N</em>,<em>N</em>-diethyl-, <em>S</em>-ethyl ester;Carbamic acid, diethylthio-, <em>S</em>-ethyl ester;Carbamothioic acid, diethyl-, <em>S</em>-ethyl ester;<em>S</em>-Ethyl <em>N</em>,<em>N</em>-diethylthiocarbamate;Ethiolate;Etirox",
    "duplicated_cas_no": "",
    "SMILES": "N(C(SCC)=O)(CC)CC",
    "meta_data": {
        "InChI": "InChI=1S/C7H15NOS/c1-4-8(5-2)7(9)10-6-3/h4-6H2,1-3H3",
        "InChIKey": null,
        "Canonical SMILES": "O=C(SCC)N(CC)CC",
        "Molecular Formula": "C<sub>7</sub>H<sub>15</sub>NOS",
        "Molecular Mass": "161.27",
        "Boiling Point": "151-153 °C @ Press: 13.3 mbar"
    }
}