{
    "cas_no": "29166-72-1",
    "key_name": "2-<em>tert</em>-Butyl-1,1,3,3-tetramethylguanidine",
    "cn_name": "2-叔-丁基-1,1,3,3-四甲基胍;",
    "alternate_name": "Guanidine, <em>N</em>′′-(1,1-dimethylethyl)-<em>N</em>,<em>N</em>,<em>N</em>′,<em>N</em>′-tetramethyl-;Guanidine, 2-<em>tert</em>-butyl-1,1,3,3-tetramethyl-;<em>N</em>′′-(1,1-Dimethylethyl)-<em>N</em>,<em>N</em>,<em>N</em>′,<em>N</em>′-tetramethylguanidine;Tetramethyl-2-<em>tert</em>-butylguanidine;<em>N</em>-<em>tert</em>-Butyl-<em>N</em>′,<em>N</em>′,<em>N</em>′′,<em>N</em>′′-tetramethylguanidine;2-<em>tert</em>-Butyl-1,1,3,3-tetramethylguanidine;Barton base;Barton's base;BTMG",
    "duplicated_cas_no": "",
    "SMILES": "C(=NC(C)(C)C)(N(C)C)N(C)C",
    "meta_data": {
        "InChI": "InChI=1S/C9H21N3/c1-9(2,3)10-8(11(4)5)12(6)7/h1-7H3",
        "InChIKey": null,
        "Canonical SMILES": "N(=C(N(C)C)N(C)C)C(C)(C)C",
        "Molecular Formula": "C<sub>9</sub>H<sub>21</sub>N<sub>3</sub>",
        "Molecular Mass": "171.28",
        "Boiling Point": "80-82 °C @ Press: 20 Torr"
    }
}