{
    "cas_no": "22349-03-7",
    "key_name": "Nonadecylcyclohexane",
    "cn_name": "环己基十九烷;",
    "alternate_name": "Cyclohexane, nonadecyl-;Nonadecane, 1-cyclohexyl-;Nonadecylcyclohexane;<em>n</em>-Nonadecylcyclohexane",
    "duplicated_cas_no": "",
    "SMILES": "C(CCCCCCCCCCCCCCCCCC)C1CCCCC1",
    "meta_data": {
        "InChI": "InChI=1S/C25H50/c1-2-3-4-5-6-7-8-9-10-11-12-13-14-15-16-17-19-22-25-23-20-18-21-24-25/h25H,2-24H2,1H3",
        "InChIKey": null,
        "Canonical SMILES": "CCCCCCCCCCCCCCCCCCCC1CCCCC1",
        "Molecular Formula": "C<sub>25</sub>H<sub>50</sub>",
        "Molecular Mass": "350.66",
        "Boiling Point": "420 °C",
        "Melting Point": "45 °C"
    }
}