{
    "cas_no": "881-50-5",
    "key_name": "<em>N</em>-(4-Bromo-2-nitrophenyl)acetamide",
    "cn_name": null,
    "alternate_name": "Acetamide, <em>N</em>-(4-bromo-2-nitrophenyl)-;Acetanilide, 4′-bromo-2′-nitro-;<em>N</em>-(4-Bromo-2-nitrophenyl)acetamide;4′-Bromo-2′-nitroacetanilide;NSC 142293",
    "duplicated_cas_no": "",
    "SMILES": "N(C(C)=O)C1=C(N(=O)=O)C=C(Br)C=C1",
    "meta_data": {
        "InChI": "InChI=1S/C8H7BrN2O3/c1-5(12)10-7-3-2-6(9)4-8(7)11(13)14/h2-4H,1H3,(H,10,12)",
        "InChIKey": null,
        "Canonical SMILES": "O=C(NC1=CC=C(Br)C=C1N(=O)=O)C",
        "Molecular Formula": "C<sub>8</sub>H<sub>7</sub>BrN<sub>2</sub>O<sub>3</sub>",
        "Molecular Mass": "259.06",
        "Melting Point": "104 °C"
    }
}