{
    "cas_no": "34681-10-2",
    "key_name": "Butocarboxim",
    "cn_name": "O-(N-甲基氨甲酰)-3-甲巯基丁酮肟;",
    "alternate_name": "2-Butanone, 3-(methylthio)-, <em>O</em>-[(methylamino)carbonyl]oxime;3-(Methylthio)-2-butanone <em>O</em>-(methylcarbamoyl)oxime;Co 755;Butocarboxim;Drawin 755;Drawin;Drawin 50;[3-(Methylsulfanyl)butan-2-ylidene]amino <em>N</em>-methylcarbamate",
    "duplicated_cas_no": "",
    "SMILES": "C(=NOC(NC)=O)(C(SC)C)C",
    "meta_data": {
        "InChI": "InChI=1S/C7H14N2O2S/c1-5(6(2)12-4)9-11-7(10)8-3/h6H,1-4H3,(H,8,10)",
        "InChIKey": null,
        "Canonical SMILES": "O=C(ON=C(C)C(SC)C)NC",
        "Molecular Formula": "C<sub>7</sub>H<sub>14</sub>N<sub>2</sub>O<sub>2</sub>S",
        "Molecular Mass": "190.26",
        "Melting Point": "25 °C",
        "Density": "1.12 g/cm³ @ Temp: 20 °C"
    }
}