{
    "cas_no": "524-63-0",
    "key_name": "(8α,9<em>R</em>)-Cinchonan-6′,9-diol",
    "cn_name": "?色??;?色??;",
    "alternate_name": "Cinchonan-6′,9-diol, (8α,9<em>R</em>)-;Cupreine;(8α,9<em>R</em>)-Cinchonan-6′,9-diol;<em>O</em><sup>6′</sup>-Demethylquinine;Ultraquinine;<em>O</em>-Demethylquinine;Desmethylquinine;6-Hydroxycinchonidine",
    "duplicated_cas_no": "30628-36-5;1906205-94-4",
    "SMILES": "[C@H](O)([C@]1([N@@]2C[C@H](C=C)[C@](C1)(CC2)[H])[H])C=3C4=C(N=CC3)C=CC(O)=C4",
    "meta_data": {
        "InChI": "InChI=1S/C19H22N2O2/c1-2-12-11-21-8-6-13(12)9-18(21)19(23)15-5-7-20-17-4-3-14(22)10-16(15)17/h2-5,7,10,12-13,18-19,22-23H,1,6,8-9,11H2/t12-,13-,18-,19+/m0/s1",
        "InChIKey": null,
        "Canonical SMILES": "OC=1C=CC2=NC=CC(=C2C1)C(O)C3N4CCC(C3)C(C=C)C4",
        "Molecular Formula": "C<sub>19</sub>H<sub>22</sub>N<sub>2</sub>O<sub>2</sub>",
        "Molecular Mass": "310.39",
        "Melting Point": "202 °C"
    }
}