{
    "cas_no": "461-18-7",
    "key_name": "4,4,4-Trifluoro-1-butanol",
    "cn_name": "4,4,4-三氟-1-丁醇;4,4,4-三氟丁醇;4,4,4,-三氟-1-丁醇;",
    "alternate_name": "1-Butanol, 4,4,4-trifluoro-;4,4,4-Trifluoro-1-butanol;4,4,4-Trifluorobutanol",
    "duplicated_cas_no": "",
    "SMILES": "C(C(F)(F)F)CCO",
    "meta_data": {
        "InChI": "InChI=1S/C4H7F3O/c5-4(6,7)2-1-3-8/h8H,1-3H2",
        "InChIKey": null,
        "Canonical SMILES": "FC(F)(F)CCCO",
        "Molecular Formula": "C<sub>4</sub>H<sub>7</sub>F<sub>3</sub>O",
        "Molecular Mass": "128.09",
        "Boiling Point": "125 °C",
        "Density": "1.217 g/cm³ @ Temp: 25 °C"
    }
}