{
    "cas_no": "1877-77-6",
    "key_name": "3-Aminobenzyl alcohol",
    "cn_name": "3-氨基苯甲醇;",
    "alternate_name": "Benzenemethanol, 3-amino-;Benzyl alcohol, <em>m</em>-amino-;3-Aminobenzenemethanol;3-Aminobenzyl alcohol;3-(Hydroxymethyl)aniline;<em>m</em>-Aminobenzyl alcohol;NSC 62359;(3-Aminophenyl)methanol;[3-(Hydroxymethyl)phenyl]amine",
    "duplicated_cas_no": "185532-83-6",
    "SMILES": "C(O)C1=CC(N)=CC=C1",
    "meta_data": {
        "InChI": "InChI=1S/C7H9NO/c8-7-3-1-2-6(4-7)5-9/h1-4,9H,5,8H2",
        "InChIKey": null,
        "Canonical SMILES": "OCC=1C=CC=C(N)C1",
        "Molecular Formula": "C<sub>7</sub>H<sub>9</sub>NO",
        "Molecular Mass": "123.15",
        "Melting Point": "93-95 °C"
    }
}