{
    "cas_no": "530-64-3",
    "key_name": "Quinoline, hydrochloride",
    "cn_name": "氯化喹啉;",
    "alternate_name": "Quinoline, hydrochloride (1:1);Quinoline, hydrochloride;Quinolinium chloride;Quinoline monohydrochloride",
    "duplicated_cas_no": "1087703-29-4",
    "SMILES": "C12=C(C=CC=C1)N=CC=C2.Cl",
    "meta_data": {
        "InChI": "InChI=1S/C9H7N.ClH/c1-2-6-9-8(4-1)5-3-7-10-9;/h1-7H;1H",
        "InChIKey": null,
        "Canonical SMILES": "Cl.N=1C=CC=C2C=CC=CC12",
        "Molecular Formula": "C<sub>9</sub>H<sub>7</sub>N.ClH",
        "Molecular Mass": "",
        "Melting Point": "217-218 °C"
    }
}