{
    "cas_no": "50264-69-2",
    "key_name": "Lonidamine",
    "cn_name": "氯尼达明;诺尼达明;1-(2,4-二氯苯基)-1H-吲唑-3-羧酸;",
    "alternate_name": "1<em>H</em>-Indazole-3-carboxylic acid, 1-[(2,4-dichlorophenyl)methyl]-;1-[(2,4-Dichlorophenyl)methyl]-1<em>H</em>-indazole-3-carboxylic acid;1-(2,4-Dichlorobenzyl)-1<em>H</em>-indazole-3-carboxylic acid;Diclondazolic acid;DICA;AF 1890;Lonidamine;1-[(2,4-Dichlorophenyl)methyl]indazole-3-carboxylic acid",
    "duplicated_cas_no": "57571-43-4",
    "SMILES": "C(N1C=2C(C(C(O)=O)=N1)=CC=CC2)C3=C(Cl)C=C(Cl)C=C3",
    "meta_data": {
        "InChI": "InChI=1S/C15H10Cl2N2O2/c16-10-6-5-9(12(17)7-10)8-19-13-4-2-1-3-11(13)14(18-19)15(20)21/h1-7H,8H2,(H,20,21)",
        "InChIKey": null,
        "Canonical SMILES": "O=C(O)C1=NN(C=2C=CC=CC12)CC3=CC=C(Cl)C=C3Cl",
        "Molecular Formula": "C<sub>15</sub>H<sub>10</sub>Cl<sub>2</sub>N<sub>2</sub>O<sub>2</sub>",
        "Molecular Mass": "321.16",
        "Melting Point": "207 °C",
        "Density": "1.49 g/cm³"
    }
}