{
    "cas_no": "13472-60-1",
    "key_name": "3,5-Dibromo-2-methoxypyridine",
    "cn_name": null,
    "alternate_name": "Pyridine, 3,5-dibromo-2-methoxy-;3,5-Dibromo-2-methoxypyridine",
    "duplicated_cas_no": "",
    "SMILES": "O(C)C1=C(Br)C=C(Br)C=N1",
    "meta_data": {
        "InChI": "InChI=1S/C6H5Br2NO/c1-10-6-5(8)2-4(7)3-9-6/h2-3H,1H3",
        "InChIKey": null,
        "Canonical SMILES": "BrC1=CN=C(OC)C(Br)=C1",
        "Molecular Formula": "C<sub>6</sub>H<sub>5</sub>Br<sub>2</sub>NO",
        "Molecular Mass": "266.92",
        "Melting Point": "49-51 °C"
    }
}