{
    "cas_no": "496-31-1",
    "key_name": "Benzo[<em>b</em>]thiophen-2(3<em>H</em>)-one",
    "cn_name": null,
    "alternate_name": "Benzo[<em>b</em>]thiophen-2(3<em>H</em>)-one;Benzeneacetic acid, 2-mercapto-, γ-(thio lactone);Thianaphthen-2-one;2-Oxo-1-thiaindan;2-Oxo-2,3-dihydrobenzo[<em>b</em>]thiophene;2,3-Dihydro-1-benzothiophen-2-one",
    "duplicated_cas_no": "",
    "SMILES": "O=C1CC=2C(S1)=CC=CC2",
    "meta_data": {
        "InChI": "InChI=1S/C8H6OS/c9-8-5-6-3-1-2-4-7(6)10-8/h1-4H,5H2",
        "InChIKey": null,
        "Canonical SMILES": "O=C1SC=2C=CC=CC2C1",
        "Molecular Formula": "C<sub>8</sub>H<sub>6</sub>OS",
        "Molecular Mass": "150.20",
        "Boiling Point": "260-264 °C @ Press: 723 Torr",
        "Melting Point": "43-44 °C"
    }
}