{
    "cas_no": "4010-33-7",
    "key_name": "1-[2-(Benzoyloxy)phenyl]ethanone",
    "cn_name": null,
    "alternate_name": "Ethanone, 1-[2-(benzoyloxy)phenyl]-;Acetophenone, 2′-hydroxy-, benzoate;1-[2-(Benzoyloxy)phenyl]ethanone;2′-Benzoyloxyacetophenone;<em>o</em>-(Benzoyloxy)acetophenone;NSC 31880;2-Benzoyloxyphenyl methyl ketone;<em>o</em>-Acetylphenyl benzoate;2-Acetylphenyl benzoate",
    "duplicated_cas_no": "",
    "SMILES": "O(C(=O)C1=CC=CC=C1)C2=C(C(C)=O)C=CC=C2",
    "meta_data": {
        "InChI": "InChI=1S/C15H12O3/c1-11(16)13-9-5-6-10-14(13)18-15(17)12-7-3-2-4-8-12/h2-10H,1H3",
        "InChIKey": null,
        "Canonical SMILES": "O=C(OC=1C=CC=CC1C(=O)C)C=2C=CC=CC2",
        "Molecular Formula": "C<sub>15</sub>H<sub>12</sub>O<sub>3</sub>",
        "Molecular Mass": "240.25",
        "Melting Point": "89 °C"
    }
}