{
    "cas_no": "5423-67-6",
    "key_name": "3-Hydroxy-1,2,3,4-tetrahydrobenzo[<em>h</em>]quinoline",
    "cn_name": "3-羟基-1,2,3,4-四氢苯并[h]喹啉;",
    "alternate_name": "Benzo[<em>h</em>]quinolin-3-ol, 1,2,3,4-tetrahydro-;1,2,3,4-Tetrahydrobenzo[<em>h</em>]quinolin-3-ol;3-Hydroxy-1,2,3,4-tetrahydrobenzo[<em>h</em>]quinoline;NSC 13233;1<em>H</em>,2<em>H</em>,3<em>H</em>,4<em>H</em>-Benzo[<em>h</em>]quinolin-3-ol;3-Hydroxy-1,2,3,4-tetrahydrobenz(h)quinoline",
    "duplicated_cas_no": "",
    "SMILES": "OC1CC=2C(=C3C(=CC2)C=CC=C3)NC1",
    "meta_data": {
        "InChI": "InChI=1S/C13H13NO/c15-11-7-10-6-5-9-3-1-2-4-12(9)13(10)14-8-11/h1-6,11,14-15H,7-8H2",
        "InChIKey": null,
        "Canonical SMILES": "OC1CNC=2C=3C=CC=CC3C=CC2C1",
        "Molecular Formula": "C<sub>13</sub>H<sub>13</sub>NO",
        "Molecular Mass": "199.25",
        "Melting Point": "148-150 °C"
    }
}