{
    "cas_no": "59352-90-8",
    "key_name": "5-Bromo-6-methyl-2,3-pyridinediamine",
    "cn_name": null,
    "alternate_name": "2,3-Pyridinediamine, 5-bromo-6-methyl-;2-Picoline, 5,6-diamino-3-bromo-;5-Bromo-6-methyl-2,3-pyridinediamine;3-Bromo-5,6-diamino-2-picoline;5-Bromo-6-methylpyridine-2,3-diamine;2,3-Diamino-5-bromo-6-methylpyridine",
    "duplicated_cas_no": "",
    "SMILES": "BrC1=C(C)N=C(N)C(N)=C1",
    "meta_data": {
        "InChI": "InChI=1S/C6H8BrN3/c1-3-4(7)2-5(8)6(9)10-3/h2H,8H2,1H3,(H2,9,10)",
        "InChIKey": null,
        "Canonical SMILES": "BrC1=CC(N)=C(N=C1C)N",
        "Molecular Formula": "C<sub>6</sub>H<sub>8</sub>BrN<sub>3</sub>",
        "Molecular Mass": "202.05",
        "Melting Point": "135-137 °C"
    }
}