{
    "cas_no": "42854-62-6",
    "key_name": "<span class=\"text-smallcaps\">L</span>-Alanine, phenylmethyl ester, 4-methylbenzenesulfonate (1:1)",
    "cn_name": "L-丙氨酸苄酯对甲苯磺酸盐;",
    "alternate_name": "<span class=\"text-smallcaps\">L</span>-Alanine, phenylmethyl ester, 4-methylbenzenesulfonate (1:1);<span class=\"text-smallcaps\">L</span>-Alanine, phenylmethyl ester, 4-methylbenzenesulfonate;Alanine, benzyl ester, <em>p</em>-toluenesulfonate, <span class=\"text-smallcaps\">L</span>-;<span class=\"text-smallcaps\">L</span>-Alanine benzyl ester tosylate;<span class=\"text-smallcaps\">L</span>-Alanine benzyl ester <em>p</em>-toluenesulfonate;Alanine benzyl ester tosylate;(<em>S</em>)-Alanine benzyl ester tosylate;<span class=\"text-smallcaps\">L</span>-Alanine benzyl ester 4-toluenesulfonic acid salt;<span class=\"text-smallcaps\">L</span>-Alanine benzyl ester <em>p</em>-toluenesulfonate salt;<span class=\"text-smallcaps\">L</span>-Alanine benzyl ester <em>p</em>-toluenesulfonic acid salt;(<em>S</em>)-Alanine benzyl ester <em>p</em>-toluenesulfonate;Benzyl <span class=\"text-smallcaps\">L</span>-alaninate <em>p</em>-toluenesulfonate;Benzyl <span class=\"text-smallcaps\">L</span>-alaninate tosylate;(<em>S</em>)-Benzyl 2-aminopropanoate 4-methylbenzenesulfonate",
    "duplicated_cas_no": "129048-26-6;290834-15-0;661481-27-2;681282-35-9;150849-45-9",
    "SMILES": "C(OC([C@H](C)N)=O)C1=CC=CC=C1.S(=O)(=O)(O)C1=CC=C(C)C=C1",
    "meta_data": {
        "InChI": "InChI=1S/C10H13NO2.C7H8O3S/c1-8(11)10(12)13-7-9-5-3-2-4-6-9;1-6-2-4-7(5-3-6)11(8,9)10/h2-6,8H,7,11H2,1H3;2-5H,1H3,(H,8,9,10)/t8-;/m0./s1",
        "InChIKey": null,
        "Canonical SMILES": "O=C(OCC=1C=CC=CC1)C(N)C.O=S(=O)(O)C1=CC=C(C=C1)C",
        "Molecular Formula": "C<sub>10</sub>H<sub>13</sub>NO<sub>2</sub>.C<sub>7</sub>H<sub>8</sub>O<sub>3</sub>S",
        "Molecular Mass": "",
        "Melting Point": "115-117 °C"
    }
}