{
    "cas_no": "380917-97-5",
    "key_name": "Perampanel",
    "cn_name": null,
    "alternate_name": "Benzonitrile, 2-(1′,6′-dihydro-6′-oxo-1′-phenyl[2,3′-bipyridin]-5′-yl)-;2-(1′,6′-Dihydro-6′-oxo-1′-phenyl[2,3′-bipyridin]-5′-yl)benzonitrile;3-(2-Cyanophenyl)-1-phenyl-5-(2-pyridyl)-1,2-dihydropyridin-2-one;3-(2-Cyanophenyl)-5-(2-pyridyl)-1-phenyl-1,2-dihydropyridin-2-one;Perampanel;E 2007;ER 155055-90;Fycompa",
    "duplicated_cas_no": "873336-65-3",
    "SMILES": "O=C1C(=CC(=CN1C2=CC=CC=C2)C3=CC=CC=N3)C4=C(C#N)C=CC=C4",
    "meta_data": {
        "InChI": "InChI=1S/C23H15N3O/c24-15-17-8-4-5-11-20(17)21-14-18(22-12-6-7-13-25-22)16-26(23(21)27)19-9-2-1-3-10-19/h1-14,16H",
        "InChIKey": null,
        "Canonical SMILES": "N#CC=1C=CC=CC1C2=CC(=CN(C=3C=CC=CC3)C2=O)C=4N=CC=CC4",
        "Molecular Formula": "C<sub>23</sub>H<sub>15</sub>N<sub>3</sub>O",
        "Molecular Mass": "349.38",
        "Melting Point": "180 °C"
    }
}