{
    "cas_no": "106-22-9",
    "key_name": "Citronellol",
    "cn_name": "香茅醇;3,7-二甲基-6-辛烯-1-醇;",
    "alternate_name": "6-Octen-1-ol, 3,7-dimethyl-;3,7-Dimethyl-6-octen-1-ol;Citronellol;Rodinol;β-Citronellol;2,6-Dimethyl-2-octen-8-ol;Cephrol;2,3-Dihydrogeraniol;(±)-3,7-Dimethyl-6-octen-1-ol;(±)-Citronellol;<em>dl</em>-Citronellol;(±)-β-Citronellol;<span class=\"text-smallcaps\">DL</span>-Citronellol;Dihydrogeraniol;Citronellol 950;NSC 8779;Citronellol AJ;1-Hydroxy-3,7-dimethyl-6-octene;NCCF 3000",
    "duplicated_cas_no": "1335-43-9;26489-01-0",
    "SMILES": "C(CCC=C(C)C)(CCO)C",
    "meta_data": {
        "InChI": "InChI=1S/C10H20O/c1-9(2)5-4-6-10(3)7-8-11/h5,10-11H,4,6-8H2,1-3H3",
        "InChIKey": null,
        "Canonical SMILES": "OCCC(C)CCC=C(C)C",
        "Molecular Formula": "C<sub>10</sub>H<sub>20</sub>O",
        "Molecular Mass": "156.27",
        "Boiling Point": "224.5 °C",
        "Melting Point": "&lt;25 °C",
        "Density": "0.867-0.869 g/cm³ @ Temp: 10 °C"
    }
}