{
    "cas_no": "2174-13-2",
    "key_name": "(3β)-3-(Acetyloxy)pregna-5,16-dien-20-one 20-oxime",
    "cn_name": "醋酸妊娠双烯酮肟;20-肟基孕甾-5,16-二烯-3&beta;-醇-20-酮-3-醋酸酯;3&beta;-乙酰氧基-20-羟亚氨基孕甾-5,;",
    "alternate_name": "Pregna-5,16-dien-20-one, 3-(acetyloxy)-, 20-oxime, (3β)-;Pregna-5,16-dien-20-one, 3β-hydroxy-, oxime, acetate (ester);Pregna-5,16-dien-20-one, 3β-hydroxy-, acetate, oxime;(3β)-3-(Acetyloxy)pregna-5,16-dien-20-one 20-oxime;NSC 224249;16-Dehydropregnenolone acetate oxime",
    "duplicated_cas_no": "",
    "SMILES": "C[C@@]12[C@@]3([C@]([C@]4([C@](C)(CC3)C(C(=NO)C)=CC4)[H])(CC=C1C[C@@H](OC(C)=O)CC2)[H])[H]",
    "meta_data": {
        "InChI": "InChI=1S/C23H33NO3/c1-14(24-26)19-7-8-20-18-6-5-16-13-17(27-15(2)25)9-11-22(16,3)21(18)10-12-23(19,20)4/h5,7,17-18,20-21,26H,6,8-13H2,1-4H3/t17-,18-,20-,21-,22-,23+/m0/s1",
        "InChIKey": null,
        "Canonical SMILES": "O=C(OC1CC2=CCC3C4CC=C(C(=NO)C)C4(C)CCC3C2(C)CC1)C",
        "Molecular Formula": "C<sub>23</sub>H<sub>33</sub>NO<sub>3</sub>",
        "Molecular Mass": "371.51",
        "Melting Point": "220-223 °C"
    }
}