{
    "cas_no": "32294-60-3",
    "key_name": "Diphenyl ditelluride",
    "cn_name": "二苯基二碲;",
    "alternate_name": "Ditelluride, diphenyl;Phenyl ditelluride;Diphenyl ditelluride;Diphenyl ditellurium;NSC 339902;(Phenylditellanyl)benzene",
    "duplicated_cas_no": "",
    "SMILES": "[Te]([Te]C1=CC=CC=C1)C2=CC=CC=C2",
    "meta_data": {
        "InChI": "InChI=1S/C12H10Te2/c1-3-7-11(8-4-1)13-14-12-9-5-2-6-10-12/h1-10H",
        "InChIKey": null,
        "Canonical SMILES": "[Te]([Te]C=1C=CC=CC1)C=2C=CC=CC2",
        "Molecular Formula": "C<sub>12</sub>H<sub>10</sub>Te<sub>2</sub>",
        "Molecular Mass": "",
        "Melting Point": "53-54 °C"
    }
}