{
    "cas_no": "541-15-1",
    "key_name": "(-)-Carnitine",
    "cn_name": "左旋肉碱;L-肉碱;(R)-3-羧基-2-羟基-N,N,N-三甲基丙铵氢氧化物内盐;",
    "alternate_name": "1-Propanaminium, 3-carboxy-2-hydroxy-<em>N</em>,<em>N</em>,<em>N</em>-trimethyl-, inner salt, (2<em>R</em>)-;Ammonium, (3-carboxy-2-hydroxypropyl)trimethyl-, hydroxide, inner salt, <span class=\"text-smallcaps\">L</span>-;1-Propanaminium, 3-carboxy-2-hydroxy-<em>N</em>,<em>N</em>,<em>N</em>-trimethyl-, hydroxide, inner salt, (<em>R</em>)-;(-)-Carnitine;Carnitine, (-)-;<em>l</em>-Carnitine;Vitamin B<sub>T</sub>;<span class=\"text-smallcaps\">L</span>-(-)-Carnitine;Carnitine;<span class=\"text-smallcaps\">L</span>-Carnitine;(-)-<span class=\"text-smallcaps\">L</span>-Carnitine;Levocarnitine;(<em>R</em>)-Carnitine;1-Propanaminium, 3-carboxy-2-hydroxy-<em>N</em>,<em>N</em>,<em>N</em>-trimethyl-, inner salt, (<em>R</em>)-;ST 198;Carniking 50;Carnitene;Carniking;Carnitor;Carnilean;Coaxel;Carnipass;Carnipass 20;<span class=\"text-smallcaps\">L</span>-Carnipure;Natrulon RC;Carnivit;Carnil;Aminocarnifarm;(3R)-3-Hydroxy-4-(trimethylazaniumyl)butanoate;MeSH ID: D002331",
    "duplicated_cas_no": "101512-81-6;4209-27-2;7634-98-2",
    "SMILES": "C([N+](C)(C)C)[C@@H](CC([O-])=O)O",
    "meta_data": {
        "InChI": "InChI=1S/C7H15NO3/c1-8(2,3)5-6(9)4-7(10)11/h6,9H,4-5H2,1-3H3/t6-/m1/s1",
        "InChIKey": null,
        "Canonical SMILES": "O=C([O-])CC(O)C[N+](C)(C)C",
        "Molecular Formula": "C<sub>7</sub>H<sub>15</sub>NO<sub>3</sub>",
        "Molecular Mass": "",
        "Melting Point": "196-198 °C"
    }
}