{
    "cas_no": "110-87-2",
    "key_name": "3,4-Dihydro-2<em>H</em>-pyran",
    "cn_name": "3,4-二氢-2H-吡喃;",
    "alternate_name": "2<em>H</em>-Pyran, 3,4-dihydro-;Pyran, dihydro-;2-Pyran, 3,4-dihydro-;1,2-Pyran, 3,4-dihydro-;3,4-Dihydro-2<em>H</em>-pyran;2,3-Dihydro-4<em>H</em>-pyran;2<em>H</em>-3,4-Dihydropyran;Δ<sup>2</sup>-Dihydropyran;5,6-Dihydro-4<em>H</em>-pyran;Dihydropyran;Dihydro-2<em>H</em>-pyran;2,3-Dihydro-γ-pyran;NSC 57860;NSC 73472;3,4-Dihydro-2<em>H</em>-pyrane;2,3,4-Trihydropyran;DHP",
    "duplicated_cas_no": "",
    "SMILES": "C1CCOC=C1",
    "meta_data": {
        "InChI": "InChI=1S/C5H8O/c1-2-4-6-5-3-1/h2,4H,1,3,5H2",
        "InChIKey": null,
        "Canonical SMILES": "O1C=CCCC1",
        "Molecular Formula": "C<sub>5</sub>H<sub>8</sub>O",
        "Molecular Mass": "84.12",
        "Boiling Point": "86 °C",
        "Melting Point": "-70 °C",
        "Density": "0.922 g/cm³ @ Temp: 19 °C"
    }
}