{
    "cas_no": "15028-41-8",
    "key_name": "α-Aminoisobutyric acid methyl ester hydrochloride",
    "cn_name": "2-氨基异丁酸甲酯盐酸盐;",
    "alternate_name": "Alanine, 2-methyl-, methyl ester, hydrochloride (1:1);Alanine, 2-methyl-, methyl ester, hydrochloride;Methyl α-aminoisobutyrate hydrochloride;2-Methylalanine methyl ester hydrochloride;Methyl 2-aminoisobutyrate hydrochloride;2,2-Dimethylglycine methyl ester hydrochloride;α-Aminoisobutyric acid methyl ester hydrochloride;Methyl 2-amino-2-methylpropanoate hydrochloride;2-Aminoisobutyric acid methyl ester hydrochloride;2-Amino-2-methylpropionic acid methyl ester hydrochloride;2-Aminoisobutanoic acid methyl ester hydrochloride;Methyl 2-aminoisobutanoate hydrochloride;2-Amino-2-methylpropanoic acid methyl ester hydrochloride;Methyl 2-amino-2-methylpropanoate hydrochloride salt;Propionic acid, 2-hydrazino-2-methyl-, methyl ester, monohydrochloride;Propanoic acid, 2-hydrazinyl-2-methyl-, methyl ester, hydrochloride (1:1)",
    "duplicated_cas_no": "17075-78-4;2306907-41-3",
    "SMILES": "C(C(C)(C)N)(OC)=O.Cl",
    "meta_data": {
        "InChI": "InChI=1S/C5H11NO2.ClH/c1-5(2,6)4(7)8-3;/h6H2,1-3H3;1H",
        "InChIKey": null,
        "Canonical SMILES": "Cl.O=C(OC)C(N)(C)C",
        "Molecular Formula": "C<sub>5</sub>H<sub>11</sub>NO<sub>2</sub>.ClH",
        "Molecular Mass": "",
        "Melting Point": "183-184 °C"
    }
}