{
    "cas_no": "9004-95-9",
    "key_name": "Polyethylene glycol cetyl ether",
    "cn_name": null,
    "alternate_name": "Poly(oxy-1,2-ethanediyl), α-hexadecyl-ω-hydroxy-;Glycols, polyethylene, monohexadecyl ether;1-Hexadecanol, monoether with polyethylene glycol;Lubrol W;Brij 58;α-Hydroxy-ω-cetylpoly(ethylene oxide);Polyethylene glycol cetyl ether;Polyethylene glycol monocetyl ether;Polyethylene glycol palmityl ether;Polyoxyethylene cetyl alcohol ether;Polyoxyethylene ether of cetyl alcohol;Poly(oxyethylene) cetyl ether;Ts 40;Brij 52;Brij 56;Cetyl poly(oxyethylene) ether;Cirrasol ALN-WF;G 3820;Oxyethylenated hexadecyl alcohol;Polyethylene glycol hexadecyl ether;Polyethylene glycol monohexadecyl ether;Poly(oxyethylene) monocetyl ether;Poly(oxyethylene) palmityl ether;Romopal O;Ts 14;Ts 30;Poly(oxyethylene) hexadecylether;NTs 40;Polyethylene oxide cetyl ether;G 3804POE;G 3802POE;G 3816;Ts 35;Hexadecanol poly(oxyethylene) ether;Ts 20;Cetocire;Nikkol BC 30;Ceteth 2;Atlas G 3802;G 3802;Lipocol C 2;Ceteth 1;S 30;Collone AC;Ts 35 (polymer);Nissan Nonion P 208;Poly(oxyethylene) monohexadecyl ether;OS 55;Nikkol BC;BC 20TX;BC 7;Nikkol BC 20TX;α-Hexadecyl-ω-hydroxy-poly(oxy-1,2-ethanediyl);BC 20;BC 10;OTsS 14;OTsS 20;Ceteth;Ethosperse CL 20;OS 30;Hexadecylpoly(ethyleneoxy)ethanol;CA 16;TsA 16;Berol 28;Nikkol BC 15TX;BC 30TX;Brij W 1;Polyethylene oxide hexadecyl ether;Brij 38;Cetyl alcohol ethoxylate;Ts 55;Ts 62;Polyethylene glycol monopalmityl ether;Emalex 103;Emalex 115;Nonion P 208;Nissan Nonion P 220;Nissan Nonion P 210;Nonion P 210;Emulgen 210;Nikkol BC 40;Nissan Nonion P 213;Atlas G 3816;Nissan Nonion P 223;Nonion P 223;Nonion P 220;Lipocol C 20;Ceteth 20;Nikkol BC 2;BC 2;Trycol 5984;Nikkol BC 23;Procol CA 16;Ceteth 10;Nikkol BC 5.5;Nikkol BC 7;Emalex 110;Nikkol BC 10TX;Nikkol BC 30TX;Nikkol BC 40TX;Macol CA 2;Macol CA 20;Nikkol BC 10;Nikkol BC 20;Pegnol C 18;Emulgen 2200;Alfonic 16-8;POE monohexadecyl ether;Nikkol BC 25TX;Ceteth 8;Ts 20 (polyoxyalkylene);Ts 40 (polyglycol);Polyethoxylated hexadecanol;Emalex 120;Hetoxol CA 2;Ethoxylated hexadecyl alcohol;C 30;C 30 (polyoxyalkylene);Ts 30 (ethoxylate);Ceteth 25;Ethoxylated cetyl alcohol;Emalex 105;BC 8SY;Blaunon CH 340;Ethoxylated(20) cetyl alcohol;Nissan Nonion P 205;Nonion P 205;POE cetyl ether;Ceteth 12;Hetoxol CA 10;Emalex 102;Emalex 116;Emalex 130;Brij 58P;Blaunon CH 305;Ceteth 15;BC 40TX;Ceteth 3;Ceteth 23;Scourol 700;C 20;Konion CA 12;Emalex 117;BC 10TX;Emalex 125;Lipocol C 10;Emulmin CC 100;Emulmin CC 150;Emulmin CC 200;Nikkol BC 50TX;PEG cetyl ether;Blaunon CH 315;EA 25 (polyoxyalkylene);EA 25;Emalex 107;Koremul CE-m;Nikkol BC 25;Nikkol BC 15;Conion 67-300R;C16E12;Emalex 112;Blaunon CH 302L;Pingpingjia O 22;Blaunon CH 310L;BC 23;Teric 475;Ceteth 6;Brij C 10;Anapoe 58;Nikkol BC 150;BC 5.5;Newcol 1607;Ceteth 7;Nikkol BC 202;Blaunon CH 320;Brij C 2SO-AP;Brij C 2;Brij C 20;Emulgen 210P;Polyethylene glycol ether with Kalcohl 6098 (1:1);Nikkol BC 10NR;PEG monocetyl ether;Ceteth 150;Nikkol BC 4;Blaunon CH 320L;Polyoxythylene cetyl ether;Blaunon CH 308;BC 15;Ethylene oxide-Brij 58 block copolymer;Polyoxyethylene glycol monocetyl ether;Cetyl polyethylene glycol;Brij C 10SO(AP);Poly(ethylene glcyol) monohexadecyl ether;Blaunon CH 330L;O 13 (polyether);O 15;O 13;Emalex 104;Blaunon CH 315L;Nikkol BC 8SY;Blaunon CH 313",
    "duplicated_cas_no": "8013-80-7;8038-99-1;31586-40-0;31800-63-2;32054-77-6;32070-90-9;37359-30-1;39290-55-6;50813-70-2;50813-71-3;53663-60-8;63172-62-3;66015-22-3;77282-12-3;111637-23-1;114797-52-3;116464-10-9;137505-79-4;138874-15-4;145613-03-2;145613-05-4;145613-06-5;150260-52-9;459409-04-2;503027-87-0;741258-97-9;1433018-70-2;1456520-38-9;1523474-62-5;1698885-20-9;2073110-71-9;2231690-72-3;2784659-05-6",
    "SMILES": "",
    "meta_data": {
        "InChI": "",
        "InChIKey": null,
        "Canonical SMILES": "",
        "Molecular Formula": "(C<sub>2</sub>H<sub>4</sub>O)<sub>n</sub>C<sub>16</sub>H<sub>34</sub>O",
        "Molecular Mass": "",
        "Boiling Point": "35.4-39.6 °C",
        "Density": "1.70 g/cm³ @ Temp: 25 °C"
    }
}