{
    "cas_no": "12180-80-2",
    "key_name": "1,1′-Dibenzoylferrocene",
    "cn_name": "1,1-二苯甲酰二茂铁;双(苯甲酰基环戊二烯基)二茂铁;",
    "alternate_name": "Ferrocene, 1,1′-dibenzoyl-;Ketone, cyclopentadienyl phenyl, iron deriv.;Ketone, cyclopentadienyl phenyl, Fe deriv.;1,1′-Dibenzoylferrocene;Dibenzoylferrocene;NSC 223086;Iron, bis(benzoylcyclopentadienyl)-",
    "duplicated_cas_no": "872787-04-7",
    "SMILES": "C(=O)([C-]12[Fe+2]3456789([C-]%10(C(=O)C%11=CC=CC=C%11)[CH]3=[CH]4[CH]5=[CH]6%10)[CH]1=[CH]7[CH]8=[CH]92)C%12=CC=CC=C%12",
    "meta_data": {
        "InChI": "InChI=1S/2C12H9O.Fe/c2*13-12(11-8-4-5-9-11)10-6-2-1-3-7-10;/h2*1-9H;/q2*-1;+2",
        "InChIKey": null,
        "Canonical SMILES": "O=C(C=1C=CC=CC1)[C-]23[CH]4=[CH]5[CH]6=[CH]2[Fe+2]56789%1043[CH]=%11[CH]%10=[CH]9[C-]8(C(=O)C=%12C=CC=CC%12)[CH]%117",
        "Molecular Formula": "C<sub>24</sub>H<sub>18</sub>FeO<sub>2</sub>",
        "Molecular Mass": "",
        "Melting Point": "105-106 °C",
        "Density": "1.42 g/cm³"
    }
}