{
    "cas_no": "2552-55-8",
    "key_name": "(±)-Ibotenic acid",
    "cn_name": "鹅膏氨酸;",
    "alternate_name": "5-Isoxazoleacetic acid, α-amino-2,3-dihydro-3-oxo-;4-Isoxazoline-5-acetic acid, α-amino-3-oxo-;5-Isoxazoleacetic acid, α-amino-3-hydroxy-;α-Amino-2,3-dihydro-3-oxo-5-isoxazoleacetic acid;Ibotenic acid;<span class=\"text-smallcaps\">DL</span>-Ibotenic acid;(<em>RS</em>)-Ibotenic acid;(±)-Ibotenic acid;NSC 204850;2-Amino-2-(3-oxo-2,3-dihydro-1,2-oxazol-5-yl)acetic acid;2-Amino-2-(3-hydroxyisoxazol-5-yl)acetic acid;2-Amino-2-(3-hydroxy-1,2-oxazol-5-yl)acetic acid;MeSH ID: D007051",
    "duplicated_cas_no": "31758-99-3",
    "SMILES": "C(C(O)=O)(N)C=1ONC(=O)C1",
    "meta_data": {
        "InChI": "InChI=1S/C5H6N2O4/c6-4(5(9)10)2-1-3(8)7-11-2/h1,4H,6H2,(H,7,8)(H,9,10)",
        "InChIKey": null,
        "Canonical SMILES": "O=C(O)C(N)C=1ONC(=O)C1",
        "Molecular Formula": "C<sub>5</sub>H<sub>6</sub>N<sub>2</sub>O<sub>4</sub>",
        "Molecular Mass": "158.11",
        "Melting Point": "151-152 °C (decomp)"
    }
}