{
    "cas_no": "23089-26-1",
    "key_name": "(-)-α-Bisabolol",
    "cn_name": null,
    "alternate_name": "3-Cyclohexene-1-methanol, α,4-dimethyl-α-(4-methyl-3-penten-1-yl)-, (α<em>S</em>,1<em>S</em>)-;5-Hepten-2-ol, 6-methyl-2-(4-methyl-3-cyclohexen-1-yl)-, (-)-;3-Cyclohexene-1-methanol, α,4-dimethyl-α-(4-methyl-3-pentenyl)-, [<em>S</em>-(<em>R</em>*,<em>R</em>*)]-;3-Cyclohexene-1-methanol, α,4-dimethyl-α-(4-methyl-3-pentenyl)-, (α<em>S</em>,1<em>S</em>)-;(α<em>S</em>,1<em>S</em>)-α,4-Dimethyl-α-(4-methyl-3-penten-1-yl)-3-cyclohexene-1-methanol;(-)-α-Bisabolol;Levomenol;<em>l</em>-α-Bisabolol;α-Bisabolol, (-)-;(-)-(1′<em>S</em>,2<em>S</em>)-α-Bisabolol;α-(-)-Bisabolol;(-)-(4<em>S</em>,8<em>S</em>)-α-Bisabolol;Kamillosan",
    "duplicated_cas_no": "101467-45-2",
    "SMILES": "[C@](CCC=C(C)C)(C)(O)[C@]1(CCC(C)=CC1)[H]",
    "meta_data": {
        "InChI": "InChI=1S/C15H26O/c1-12(2)6-5-11-15(4,16)14-9-7-13(3)8-10-14/h6-7,14,16H,5,8-11H2,1-4H3/t14-,15+/m1/s1",
        "InChIKey": null,
        "Canonical SMILES": "OC(C)(CCC=C(C)C)C1CC=C(C)CC1",
        "Molecular Formula": "C<sub>15</sub>H<sub>26</sub>O",
        "Molecular Mass": "222.37",
        "Boiling Point": "153 °C @ Press: 12 Torr",
        "Density": "0.9211 g/cm³ @ Temp: 20 °C"
    }
}