{
    "cas_no": "13184-86-6",
    "key_name": "Vanillyl ethyl ether",
    "cn_name": "香草醇乙醚;4-(乙氧基甲基)-2-甲氧基苯酚;",
    "alternate_name": "Phenol, 4-(ethoxymethyl)-2-methoxy-;<em>p</em>-Cresol, α-ethoxy-2-methoxy-;4-(Ethoxymethyl)-2-methoxyphenol;4-Hydroxy-3-methoxybenzyl ethyl ether;Vanillyl ethyl ether;Ethyl vanillyl ether;Ethyl 4-hydroxy-3-methoxybenzyl ether;Vanillyl alcohol ethyl ether",
    "duplicated_cas_no": "",
    "SMILES": "C(OCC)C1=CC(OC)=C(O)C=C1",
    "meta_data": {
        "InChI": "InChI=1S/C10H14O3/c1-3-13-7-8-4-5-9(11)10(6-8)12-2/h4-6,11H,3,7H2,1-2H3",
        "InChIKey": null,
        "Canonical SMILES": "OC1=CC=C(C=C1OC)COCC",
        "Molecular Formula": "C<sub>10</sub>H<sub>14</sub>O<sub>3</sub>",
        "Molecular Mass": "182.22",
        "Boiling Point": "124-125 °C @ Press: 4 Torr"
    }
}