{
    "cas_no": "536-40-3",
    "key_name": "4-Chlorobenzoic acid hydrazide",
    "cn_name": "4-氯苯甲酸肼;",
    "alternate_name": "Benzoic acid, 4-chloro-, hydrazide;Benzoic acid, <em>p</em>-chloro-, hydrazide;<em>p</em>-Chlorobenzhydrazide;<em>p</em>-Chlorobenzoic acid hydrazide;<em>p</em>-Chlorobenzoylhydrazine;<em>p</em>-Chlorobenzoyl hydrazide;4-Chlorobenzhydrazide;<em>p</em>-Chlorobenzoic hydrazide;<em>p</em>-Chlorobenzohydrazide;4-Chlorobenzohydrazide;4-Chlorobenzoic acid hydrazide;4-Chlorobenzoylhydrazide;(4-Chlorobenzoyl)hydrazine;4-Chlorobenzenecarboxylic acid hydrazide;4-Chlorobenzoic hydrazide;NSC 54990;INHd 15",
    "duplicated_cas_no": "",
    "SMILES": "C(NN)(=O)C1=CC=C(Cl)C=C1",
    "meta_data": {
        "InChI": "InChI=1S/C7H7ClN2O/c8-6-3-1-5(2-4-6)7(11)10-9/h1-4H,9H2,(H,10,11)",
        "InChIKey": null,
        "Canonical SMILES": "O=C(NN)C1=CC=C(Cl)C=C1",
        "Molecular Formula": "C<sub>7</sub>H<sub>7</sub>ClN<sub>2</sub>O",
        "Molecular Mass": "170.60",
        "Melting Point": "164 °C"
    }
}