{
    "cas_no": "1724-17-0",
    "key_name": "Methyl oleanolate",
    "cn_name": "齐墩果酸甲酯;",
    "alternate_name": "Olean-12-en-28-oic acid, 3-hydroxy-, methyl ester, (3β)-;Olean-12-en-28-oic acid, 3β-hydroxy-, methyl ester;Methyl oleanolate;Oleanolic acid methyl ester;Virgaureagenin B methyl ester;Methyl 3β-hydroxyolean-12-en-28-oate;Methyl (3β)-3-Hydroxyolean-12-en-28-oate;Methyl oleanate",
    "duplicated_cas_no": "21494-56-4;2241216-90-8",
    "SMILES": "C(OC)(=O)[C@]12[C@](C=3[C@@](C)(CC1)[C@@]4(C)[C@](CC3)([C@]5(C)[C@@](CC4)(C(C)(C)[C@@H](O)CC5)[H])[H])(CC(C)(C)CC2)[H]",
    "meta_data": {
        "InChI": "InChI=1S/C31H50O3/c1-26(2)15-17-31(25(33)34-8)18-16-29(6)20(21(31)19-26)9-10-23-28(5)13-12-24(32)27(3,4)22(28)11-14-30(23,29)7/h9,21-24,32H,10-19H2,1-8H3/t21-,22-,23+,24-,28-,29+,30+,31-/m0/s1",
        "InChIKey": null,
        "Canonical SMILES": "O=C(OC)C12CCC(C)(C)CC2C3=CCC4C5(C)CCC(O)C(C)(C)C5CCC4(C)C3(C)CC1",
        "Molecular Formula": "C<sub>31</sub>H<sub>50</sub>O<sub>3</sub>",
        "Molecular Mass": "470.73",
        "Melting Point": "203 °C"
    }
}