{
    "cas_no": "83-01-2",
    "key_name": "<em>N</em>,<em>N</em>-Diphenylcarbamic chloride",
    "cn_name": "二苯氨基甲酰氯;",
    "alternate_name": "Carbamic chloride, <em>N</em>,<em>N</em>-diphenyl-;Carbamoyl chloride, diphenyl-;Carbamic chloride, diphenyl-;<em>N</em>,<em>N</em>-Diphenylcarbamic chloride;Diphenylcarbamoyl chloride;Diphenylcarbamyl chloride;Diphenylchloroformamide;Diphenylcarbamic chloride;<em>N</em>,<em>N</em>-Diphenylcarbamoyl chloride;NSC 6788",
    "duplicated_cas_no": "",
    "SMILES": "N(C(Cl)=O)(C1=CC=CC=C1)C2=CC=CC=C2",
    "meta_data": {
        "InChI": "InChI=1S/C13H10ClNO/c14-13(16)15(11-7-3-1-4-8-11)12-9-5-2-6-10-12/h1-10H",
        "InChIKey": null,
        "Canonical SMILES": "O=C(Cl)N(C=1C=CC=CC1)C=2C=CC=CC2",
        "Molecular Formula": "C<sub>13</sub>H<sub>10</sub>ClNO",
        "Molecular Mass": "231.68",
        "Melting Point": "84 °C"
    }
}