{
    "cas_no": "1873-77-4",
    "key_name": "Tris(trimethylsilyl)silane",
    "cn_name": "三(三甲基硅基)硅烷;三(三甲硅基)硅烷;三(三甲硅烷基)硅烷;",
    "alternate_name": "Trisilane, 1,1,1,3,3,3-hexamethyl-2-(trimethylsilyl)-;1,1,1,3,3,3-Hexamethyl-2-(trimethylsilyl)trisilane;Tris(trimethylsilyl)silane;TTMSS;Tris(trimethysilyl)silane",
    "duplicated_cas_no": "1629728-41-1",
    "SMILES": "[SiH]([Si](C)(C)C)([Si](C)(C)C)[Si](C)(C)C",
    "meta_data": {
        "InChI": "InChI=1S/C9H28Si4/c1-11(2,3)10(12(4,5)6)13(7,8)9/h10H,1-9H3",
        "InChIKey": null,
        "Canonical SMILES": "C[Si](C)(C)[SiH]([Si](C)(C)C)[Si](C)(C)C",
        "Molecular Formula": "C<sub>9</sub>H<sub>28</sub>Si<sub>4</sub>",
        "Molecular Mass": "248.66",
        "Boiling Point": "82-84 °C @ Press: 12 Torr",
        "Density": "0.806 g/cm³"
    }
}