{
    "cas_no": "7446-81-3",
    "key_name": "Sodium acrylate",
    "cn_name": "丙烯酸钠;",
    "alternate_name": "2-Propenoic acid, sodium salt (1:1);Acrylic acid, sodium salt;2-Propenoic acid, sodium salt;Sodium acrylate;Sodium 2-propenoate;Webac 240A1;Flexisperse 450N;CI 05K;Longhai 1240",
    "duplicated_cas_no": "44196-70-5;65852-59-7;124740-94-9;126123-84-0;138961-78-1;199453-47-9;291530-46-6;1239896-27-5;1674405-53-8;1865799-57-0;2249945-71-7;2891604-89-8",
    "SMILES": "C(C=C)(O)=O.[Na]",
    "meta_data": {
        "InChI": "InChI=1S/C3H4O2.Na/c1-2-3(4)5;/h2H,1H2,(H,4,5);",
        "InChIKey": null,
        "Canonical SMILES": "[Na].O=C(O)C=C",
        "Molecular Formula": "C<sub>3</sub>H<sub>4</sub>O<sub>2</sub>.Na",
        "Molecular Mass": "",
        "Melting Point": "&gt;300 °C"
    }
}