{
    "cas_no": "480-93-3",
    "key_name": "Indoxyl",
    "cn_name": "3-羟基吲哚;",
    "alternate_name": "1<em>H</em>-Indol-3-ol;Indol-3-ol;Indoxyl;3-Hydroxyindole",
    "duplicated_cas_no": "",
    "SMILES": "OC=1C=2C(=CC=CC2)NC1",
    "meta_data": {
        "InChI": "InChI=1S/C8H7NO/c10-8-5-9-7-4-2-1-3-6(7)8/h1-5,9-10H",
        "InChIKey": null,
        "Canonical SMILES": "OC1=CNC=2C=CC=CC12",
        "Molecular Formula": "C<sub>8</sub>H<sub>7</sub>NO",
        "Molecular Mass": "133.15",
        "Melting Point": "85-87 °C"
    }
}