{
    "cas_no": "108-18-9",
    "key_name": "Diisopropylamine",
    "cn_name": "二异丙胺;二异丙基胺;",
    "alternate_name": "2-Propanamine, <em>N</em>-(1-methylethyl)-;Diisopropylamine;<em>N</em>-(1-Methylethyl)-2-propanamine;<em>N</em>,<em>N</em>-Diisopropylamine;Bis(isopropyl)amine;NSC 6758;<em>N</em>-(Propan-2-yl)propan-2-amine;Bis(1-methylethyl)amine;<em>N</em>-Isopropylpropan-2-amine;Bis(propan-2-yl)amine;D 0925",
    "duplicated_cas_no": "1051915-25-3;2247130-86-3",
    "SMILES": "N(C(C)C)C(C)C",
    "meta_data": {
        "InChI": "InChI=1S/C6H15N/c1-5(2)7-6(3)4/h5-7H,1-4H3",
        "InChIKey": null,
        "Canonical SMILES": "N(C(C)C)C(C)C",
        "Molecular Formula": "C<sub>6</sub>H<sub>15</sub>N",
        "Molecular Mass": "101.19",
        "Boiling Point": "84 °C @ Press: 760 Torr",
        "Melting Point": "-61 °C",
        "Density": "0.7169 g/cm³ @ Temp: 20 °C"
    }
}