{
    "cas_no": "623-50-7",
    "key_name": "Ethyl glycolate",
    "cn_name": "乙醇酸乙酯;2-羟基乙酸乙酯;",
    "alternate_name": "Acetic acid, 2-hydroxy-, ethyl ester;Glycolic acid, ethyl ester;Acetic acid, hydroxy-, ethyl ester;Ethyl glycolate;Ethyl hydroxyacetate;NSC 8835;2-Hydroxyacetic acid ethyl ester;Ethyl 2-hydroxyacetate",
    "duplicated_cas_no": "",
    "SMILES": "C(OCC)(CO)=O",
    "meta_data": {
        "InChI": "InChI=1S/C4H8O3/c1-2-7-4(6)3-5/h5H,2-3H2,1H3",
        "InChIKey": null,
        "Canonical SMILES": "O=C(OCC)CO",
        "Molecular Formula": "C<sub>4</sub>H<sub>8</sub>O<sub>3</sub>",
        "Molecular Mass": "104.10",
        "Boiling Point": "160 °C",
        "Density": "1.0869 g/cm³"
    }
}