{
    "cas_no": "5906-99-0",
    "key_name": "Benzenesulfonic acid, 2-nitro-, hydrazide",
    "cn_name": null,
    "alternate_name": "Benzenesulfonic acid, 2-nitro-, hydrazide;Benzenesulfonic acid, <em>o</em>-nitro-, hydrazide;<em>o</em>-Nitrophenylsulfonylhydrazine;2-Nitrobenzenesulfonylhydrazide;<em>o</em>-Nitrobenzenesulfonyl hydrazide;<em>o</em>-Nitrobenzenesulfonylhydrazine;2-Nitrobenzenesulfonic acid hydrazide;2-Nitrobenzenesulfonohydrazine;2-Nitrobenzenesulfonohydrazide;2-Nitrobenzene-1-sulfonohydrazide",
    "duplicated_cas_no": "",
    "SMILES": "S(NN)(=O)(=O)C1=C(N(=O)=O)C=CC=C1",
    "meta_data": {
        "InChI": "InChI=1S/C6H7N3O4S/c7-8-14(12,13)6-4-2-1-3-5(6)9(10)11/h1-4,8H,7H2",
        "InChIKey": null,
        "Canonical SMILES": "O=N(=O)C=1C=CC=CC1S(=O)(=O)NN",
        "Molecular Formula": "C<sub>6</sub>H<sub>7</sub>N<sub>3</sub>O<sub>4</sub>S",
        "Molecular Mass": "217.20",
        "Melting Point": "101 °C (decomp)"
    }
}