{
    "cas_no": "27043-05-6",
    "key_name": "2-Ethyl-3,?-dimethylpyrazine",
    "cn_name": null,
    "alternate_name": "Pyrazine, 2-ethyl-3,?-dimethyl-;2-Ethyl-3,?-dimethylpyrazine;2-Ethyl-3,(5 <em>or</em> 6)-dimethylpyrazine;2-Ethyl-3,5(6)-dimethylpyrazine",
    "duplicated_cas_no": "55031-15-7",
    "SMILES": "",
    "meta_data": {
        "InChI": "",
        "InChIKey": null,
        "Canonical SMILES": "",
        "Molecular Formula": "C<sub>8</sub>H<sub>12</sub>N<sub>2</sub>",
        "Molecular Mass": "",
        "Boiling Point": "180-181 °C"
    }
}