{
    "cas_no": "874-61-3",
    "key_name": "4-Oxocyclohexanecarboxylic acid",
    "cn_name": "4-环己酮羧酸;",
    "alternate_name": "Cyclohexanecarboxylic acid, 4-oxo-;4-Oxocyclohexanecarboxylic acid;4-Ketocyclohexanecarboxylic acid;Cyclohexanone-4-carboxylic acid;4-Oxo-1-cyclohexanecarboxylic acid;4-Ketocyclohexylcarboxylic acid",
    "duplicated_cas_no": "",
    "SMILES": "C(O)(=O)C1CCC(=O)CC1",
    "meta_data": {
        "InChI": "InChI=1S/C7H10O3/c8-6-3-1-5(2-4-6)7(9)10/h5H,1-4H2,(H,9,10)",
        "InChIKey": null,
        "Canonical SMILES": "O=C(O)C1CCC(=O)CC1",
        "Molecular Formula": "C<sub>7</sub>H<sub>10</sub>O<sub>3</sub>",
        "Molecular Mass": "142.15",
        "Boiling Point": "210 °C @ Press: 25 Torr",
        "Melting Point": "75-76 °C"
    }
}