{
    "cas_no": "28955-30-8",
    "key_name": "5-Acetonyl-7-hydroxy-2-methylchromone",
    "cn_name": null,
    "alternate_name": "4<em>H</em>-1-Benzopyran-4-one, 7-hydroxy-2-methyl-5-(2-oxopropyl)-;Chromone, 5-acetonyl-7-hydroxy-2-methyl-;7-Hydroxy-2-methyl-5-(2-oxopropyl)-4<em>H</em>-1-benzopyran-4-one;5-Acetylmethyl-7-hydroxy-2-methylchromone;Cassiachromone;5-Acetonyl-7-hydroxy-2-methylchromone",
    "duplicated_cas_no": "",
    "SMILES": "C(C(C)=O)C1=C2C(OC(C)=CC2=O)=CC(O)=C1",
    "meta_data": {
        "InChI": "InChI=1S/C13H12O4/c1-7(14)3-9-5-10(15)6-12-13(9)11(16)4-8(2)17-12/h4-6,15H,3H2,1-2H3",
        "InChIKey": null,
        "Canonical SMILES": "O=C1C=C(OC2=CC(O)=CC(=C12)CC(=O)C)C",
        "Molecular Formula": "C<sub>13</sub>H<sub>12</sub>O<sub>4</sub>",
        "Molecular Mass": "232.23",
        "Melting Point": "224-225 °C"
    }
}