{
    "cas_no": "2083-68-3",
    "key_name": "Octyltrimethylammonium bromide",
    "cn_name": null,
    "alternate_name": "1-Octanaminium, <em>N</em>,<em>N</em>,<em>N</em>-trimethyl-, bromide (1:1);Ammonium, trimethyloctyl-, bromide;1-Octanaminium, <em>N</em>,<em>N</em>,<em>N</em>-trimethyl-, bromide;Trimethyloctylammonium bromide;Octyltrimethylammonium bromide;Octalone;<em>N</em>,<em>N</em>,<em>N</em>-Trimethyl-1-octanaminium bromide;<em>n</em>-Octyltrimethylammonium bromide;<em>N</em>-Octyl-<em>N</em>,<em>N</em>,<em>N</em>-trimethylammonium bromide;C 8TAB;TrimethylQUAT?",
    "duplicated_cas_no": "",
    "SMILES": "C(CCCCCCC)[N+](C)(C)C.[Br-]",
    "meta_data": {
        "InChI": "InChI=1S/C11H26N.BrH/c1-5-6-7-8-9-10-11-12(2,3)4;/h5-11H2,1-4H3;1H/q+1;/p-1",
        "InChIKey": null,
        "Canonical SMILES": "[Br-].CCCCCCCC[N+](C)(C)C",
        "Molecular Formula": "C<sub>11</sub>H<sub>26</sub>N.Br",
        "Molecular Mass": "",
        "Boiling Point": "114 °C @ Press: 5 Torr",
        "Melting Point": "198-200 °C"
    }
}