{
    "cas_no": "5444-75-7",
    "key_name": "Ethylhexyl benzoate",
    "cn_name": "苯甲酸2-乙基己酯;",
    "alternate_name": "Benzoic acid, 2-ethylhexyl ester;1-Hexanol, 2-ethyl-, benzoate;Ethylhexyl benzoate;2-Ethyl-1-hexanol benzoate;2-Ethylhexyl benzoate;Velate 368;NSC 19155;Hi-Ester B 508;Finsolv EB;SDX 3652;Benzoflex 181",
    "duplicated_cas_no": "1240324-30-4",
    "SMILES": "C(OCC(CCCC)CC)(=O)C1=CC=CC=C1",
    "meta_data": {
        "InChI": "InChI=1S/C15H22O2/c1-3-5-9-13(4-2)12-17-15(16)14-10-7-6-8-11-14/h6-8,10-11,13H,3-5,9,12H2,1-2H3",
        "InChIKey": null,
        "Canonical SMILES": "O=C(OCC(CC)CCCC)C=1C=CC=CC1",
        "Molecular Formula": "C<sub>15</sub>H<sub>22</sub>O<sub>2</sub>",
        "Molecular Mass": "234.33",
        "Boiling Point": "169-170 °C @ Press: 20 Torr",
        "Density": "0.9654 g/cm³ @ Temp: 20 °C"
    }
}