{
    "cas_no": "102-20-5",
    "key_name": "Phenylethyl phenylacetate",
    "cn_name": "苯乙酸苯乙酯;苯乙酸-2-苯基乙酯;",
    "alternate_name": "Benzeneacetic acid, 2-phenylethyl ester;Acetic acid, phenyl-, phenethyl ester;Benzylcarbinyl α-toluate;Phenylethyl phenylacetate;β-Phenylethyl phenylacetate;2-Phenylethyl phenylacetate;Phenethyl phenylacetate;NSC 6676;2-Phenylethyl 2-phenylethanoate;2-Phenylethyl 2-phenylacetate;Phenethyl 2-phenylacetate",
    "duplicated_cas_no": "",
    "SMILES": "C(C(OCCC1=CC=CC=C1)=O)C2=CC=CC=C2",
    "meta_data": {
        "InChI": "InChI=1S/C16H16O2/c17-16(13-15-9-5-2-6-10-15)18-12-11-14-7-3-1-4-8-14/h1-10H,11-13H2",
        "InChIKey": null,
        "Canonical SMILES": "O=C(OCCC=1C=CC=CC1)CC=2C=CC=CC2",
        "Molecular Formula": "C<sub>16</sub>H<sub>16</sub>O<sub>2</sub>",
        "Molecular Mass": "240.30",
        "Boiling Point": "330 °C",
        "Melting Point": "26.5 °C"
    }
}