{
    "cas_no": "17213-58-0",
    "key_name": "3,5-Dimethoxybenzamide",
    "cn_name": "3,5-二甲氧基苯甲酰胺;",
    "alternate_name": "Benzamide, 3,5-dimethoxy-;3,5-Dimethoxybenzamide;NSC 16615",
    "duplicated_cas_no": "",
    "SMILES": "C(N)(=O)C1=CC(OC)=CC(OC)=C1",
    "meta_data": {
        "InChI": "InChI=1S/C9H11NO3/c1-12-7-3-6(9(10)11)4-8(5-7)13-2/h3-5H,1-2H3,(H2,10,11)",
        "InChIKey": null,
        "Canonical SMILES": "O=C(N)C=1C=C(OC)C=C(OC)C1",
        "Molecular Formula": "C<sub>9</sub>H<sub>11</sub>NO<sub>3</sub>",
        "Molecular Mass": "181.19",
        "Melting Point": "143 °C"
    }
}