{
    "cas_no": "638-00-6",
    "key_name": "2,4-Dimethylthiophene",
    "cn_name": null,
    "alternate_name": "Thiophene, 2,4-dimethyl-;2,4-Dimethylthiophene",
    "duplicated_cas_no": "",
    "SMILES": "CC=1C=C(C)SC1",
    "meta_data": {
        "InChI": "InChI=1S/C6H8S/c1-5-3-6(2)7-4-5/h3-4H,1-2H3",
        "InChIKey": null,
        "Canonical SMILES": "S1C=C(C=C1C)C",
        "Molecular Formula": "C<sub>6</sub>H<sub>8</sub>S",
        "Molecular Mass": "112.19",
        "Boiling Point": "140.7 °C"
    }
}