{
    "cas_no": "1932-04-3",
    "key_name": "1,2-Dipiperidinoethane",
    "cn_name": "1,2-二哌啶基乙烷;",
    "alternate_name": "Piperidine, 1,1′-(1,2-ethanediyl)bis-;Piperidine, 1,1′-ethylenedi-;1,1′-(1,2-Ethanediyl)bis[piperidine];1,2-Dipiperidinylethane;1,2-Dipiperidinoethane;1,2-Bis(<em>N</em>-piperidinyl)ethane;1,2-Bis(1-piperidinyl)ethane;NSC 59292;1,2-(Piperidin-1-yl)ethane;1-[2-(Piperidin-1-yl)ethyl]piperidine;1-(2-Piperidin-1-ylethyl)piperidine;1,2-Di(piperidin-1-yl)ethane",
    "duplicated_cas_no": "",
    "SMILES": "C(CN1CCCCC1)N2CCCCC2",
    "meta_data": {
        "InChI": "InChI=1S/C12H24N2/c1-3-7-13(8-4-1)11-12-14-9-5-2-6-10-14/h1-12H2",
        "InChIKey": null,
        "Canonical SMILES": "N1(CCN2CCCCC2)CCCCC1",
        "Molecular Formula": "C<sub>12</sub>H<sub>24</sub>N<sub>2</sub>",
        "Molecular Mass": "196.33",
        "Boiling Point": "265 °C",
        "Melting Point": "-0.5 °C",
        "Density": "0.9236 g/cm³ @ Temp: 16.5 °C"
    }
}