{
    "cas_no": "89-92-9",
    "key_name": "2-Methylbenzyl bromide",
    "cn_name": "邻甲基苄溴;",
    "alternate_name": "Benzene, 1-(bromomethyl)-2-methyl-;<em>o</em>-Xylene, α-bromo-;1-(Bromomethyl)-2-methylbenzene;α-Bromo-<em>o</em>-xylene;2-Methylbenzyl bromide;2-Xylyl bromide;2-(Bromomethyl)toluene;<em>o</em>-Methylbenzyl bromide;<em>o</em>-Xylyl bromide;NSC 60145;<em>o</em>-(Bromomethyl)toluene",
    "duplicated_cas_no": "",
    "SMILES": "C(Br)C1=C(C)C=CC=C1",
    "meta_data": {
        "InChI": "InChI=1S/C8H9Br/c1-7-4-2-3-5-8(7)6-9/h2-5H,6H2,1H3",
        "InChIKey": null,
        "Canonical SMILES": "BrCC=1C=CC=CC1C",
        "Molecular Formula": "C<sub>8</sub>H<sub>9</sub>Br",
        "Molecular Mass": "185.06",
        "Boiling Point": "216-217 °C @ Press: 742 Torr",
        "Melting Point": "21 °C",
        "Density": "1.381 g/cm³ @ Temp: 23 °C"
    }
}