{
    "cas_no": "53641-60-4",
    "key_name": "Benzeneacetonitrile, α-amino-, hydrochloride (1:1)",
    "cn_name": "a-氰基苯乙胺盐酸盐;",
    "alternate_name": "Benzeneacetonitrile, α-amino-, hydrochloride (1:1);Benzeneacetonitrile, α-amino-, monohydrochloride;Glycinonitrile, 2-phenyl-, monohydrochloride;1-Phenylglycinonitrile hydrochloride;α-Aminophenylacetonitrile hydrochloride;2-Amino-2-phenylacetonitrile hydrochloride;[(Cyano)(phenyl)methyl]amine hydrochloride;2-Amino-2-phenylethanenitrile hydrochloride",
    "duplicated_cas_no": "53941-45-0",
    "SMILES": "C(C#N)(N)C1=CC=CC=C1.Cl",
    "meta_data": {
        "InChI": "InChI=1S/C8H8N2.ClH/c9-6-8(10)7-4-2-1-3-5-7;/h1-5,8H,10H2;1H",
        "InChIKey": null,
        "Canonical SMILES": "Cl.N#CC(N)C=1C=CC=CC1",
        "Molecular Formula": "C<sub>8</sub>H<sub>8</sub>N<sub>2</sub>.ClH",
        "Molecular Mass": "",
        "Melting Point": "175-176 °C"
    }
}