{
    "cas_no": "6846-35-1",
    "key_name": "Amino-3<em>H</em>-1,2,4-dithiazole-3-thione",
    "cn_name": "3-氨基-1,2,4-二噻唑-5-硫酮;5-氨基-3H-1,2,4-二噻唑-3-硫酮;",
    "alternate_name": "3<em>H</em>-1,2,4-Dithiazole-3-thione, amino-;3<em>H</em>-1,2,4-Dithiazole-3-thione, 5-amino-;1,2,4-Dithiazolidine-3-thione, 5-imino-;Amino-3<em>H</em>-1,2,4-dithiazole-3-thione;Isoperthiocyanic acid;Xanthanohydrogen;5-Imino-1,2,4-dithiazolidine-3-thione;5-Imino-1,2,4-dithiazolidin-3-thione;Xanthane hydride;5-Imino-3-thio-1,2,4-dithiazolidine;5-Amino-1,2,4-dithiazole-3-thione;5-Amino-3<em>H</em>-1,2,4-dithiazole-3-thione;NSC 65248;3-Amino-1,2,4-dithiazol-5-thione;3-Imino-3<em>H</em>-1,2,4-dithiazole-5-thiol",
    "duplicated_cas_no": "14453-29-3",
    "SMILES": "NC1=NC(=S)SS1",
    "meta_data": {
        "InChI": "InChI=1S/C2H2N2S3/c3-1-4-2(5)7-6-1/h(H2,3,4,5)",
        "InChIKey": null,
        "Canonical SMILES": "S=C1N=C(SS1)N",
        "Molecular Formula": "C<sub>2</sub>H<sub>2</sub>N<sub>2</sub>S<sub>3</sub>",
        "Molecular Mass": "150.25",
        "Melting Point": "200-202 °C"
    }
}