{
    "cas_no": "671-89-6",
    "key_name": "4-Amino-6-chloro-1,3-benzenedisulfonyl dichloride",
    "cn_name": null,
    "alternate_name": "1,3-Benzenedisulfonyl dichloride, 4-amino-6-chloro-;<em>m</em>-Benzenedisulfonyl chloride, 4-amino-6-chloro-;4-Amino-6-chloro-1,3-benzenedisulfonyl dichloride;5-Chloroaniline-2,4-disulfonyl dichloride;4-Amino-6-chloro-1,3-benzenedisulfonyl chloride;5-Chloro-2,4-dichlorosulfonylaniline",
    "duplicated_cas_no": "",
    "SMILES": "S(Cl)(=O)(=O)C1=CC(S(Cl)(=O)=O)=C(N)C=C1Cl",
    "meta_data": {
        "InChI": "InChI=1S/C6H4Cl3NO4S2/c7-3-1-4(10)6(16(9,13)14)2-5(3)15(8,11)12/h1-2H,10H2",
        "InChIKey": null,
        "Canonical SMILES": "O=S(=O)(Cl)C=1C=C(C(N)=CC1Cl)S(=O)(=O)Cl",
        "Molecular Formula": "C<sub>6</sub>H<sub>4</sub>Cl<sub>3</sub>NO<sub>4</sub>S<sub>2</sub>",
        "Molecular Mass": "324.59",
        "Melting Point": "130-132 °C"
    }
}