{
    "cas_no": "56-92-8",
    "key_name": "Histamine dihydrochloride",
    "cn_name": "组胺二盐酸盐;组胺双盐酸盐;",
    "alternate_name": "1<em>H</em>-Imidazole-5-ethanamine, hydrochloride (1:2);Histamine, dihydrochloride;1<em>H</em>-Imidazole-4-ethanamine, dihydrochloride;Histamine dichloride;4-(2-Aminoethyl)imidazole dihydrochloride;Histamine hydrochloride;Histamine chloride;Histaminediium dichloride;Peremin;2-(1<em>H</em>-Imidazol-4-yl)ethylamine dihydrochloride;Ceplene;2-(1<em>H</em>-Imidazol-4-yl)ethanamine dihydrochloride;Histamine dihydrochloride;2-(4-Imidazolyl)ethylamine dihydrochloride;2-(1<em>H</em>-Imidazol-4-yl)ethan-1-amine dihydrochloride;2-(1<em>H</em>-Imidazol-5-yl)ethan-1-amine dihydrochloride",
    "duplicated_cas_no": "",
    "SMILES": "C(CN)C1=CN=CN1.Cl",
    "meta_data": {
        "InChI": "InChI=1S/C5H9N3.2ClH/c6-2-1-5-3-7-4-8-5;;/h3-4H,1-2,6H2,(H,7,8);2*1H",
        "InChIKey": null,
        "Canonical SMILES": "Cl.N1=CNC(=C1)CCN",
        "Molecular Formula": "C<sub>5</sub>H<sub>9</sub>N<sub>3</sub>.2ClH",
        "Molecular Mass": "",
        "Melting Point": "240-243 °C"
    }
}