{
    "cas_no": "799842-07-2",
    "key_name": "<em>N</em>-[5-(Bromomethyl)-4-(4-fluorophenyl)-6-(1-methylethyl)-2-pyrimidinyl]-<em>N</em>-methylmethanesulfonamide",
    "cn_name": "5-(溴甲基)-4-(4-氟苯基)-6-异丙基-2-[甲基(甲磺酰)氨基]嘧啶;",
    "alternate_name": "Methanesulfonamide, <em>N</em>-[5-(bromomethyl)-4-(4-fluorophenyl)-6-(1-methylethyl)-2-pyrimidinyl]-<em>N</em>-methyl-;<em>N</em>-[5-(Bromomethyl)-4-(4-fluorophenyl)-6-(1-methylethyl)-2-pyrimidinyl]-<em>N</em>-methylmethanesulfonamide;<em>N</em>-[5-Bromomethyl-4-(4-fluorophenyl)-6-isopropylpyrimidin-2-yl]-<em>N</em>-methylmethanesulfonamide;5-(Bromomethyl)-4-(4-fluorophenyl)-6-isopropyl-2-[methyl(methylsulfonyl)amino]pyrimidine;<em>N</em>-(4-(4-Fluorophenyl)-5-(bromomethyl)-6-isopropyl-pyrimidin-2-yl)-<em>N</em>-methyl-methanesulfonamide",
    "duplicated_cas_no": "",
    "SMILES": "C(Br)C=1C(=NC(N(S(C)(=O)=O)C)=NC1C(C)C)C2=CC=C(F)C=C2",
    "meta_data": {
        "InChI": "InChI=1S/C16H19BrFN3O2S/c1-10(2)14-13(9-17)15(11-5-7-12(18)8-6-11)20-16(19-14)21(3)24(4,22)23/h5-8,10H,9H2,1-4H3",
        "InChIKey": null,
        "Canonical SMILES": "O=S(=O)(N(C=1N=C(C=2C=CC(F)=CC2)C(=C(N1)C(C)C)CBr)C)C",
        "Molecular Formula": "C<sub>16</sub>H<sub>19</sub>BrFN<sub>3</sub>O<sub>2</sub>S",
        "Molecular Mass": "416.31",
        "Melting Point": "141.8 °C"
    }
}