{
    "cas_no": "110-20-3",
    "key_name": "2-(1-Methylethylidene)hydrazinecarboxamide",
    "cn_name": "丙酮缩氨脲;",
    "alternate_name": "Hydrazinecarboxamide, 2-(1-methylethylidene)-;Acetone, semicarbazone;2-(1-Methylethylidene)hydrazinecarboxamide;NSC 456;[(Propan-2-ylidene)amino]urea;(Propan-2-ylideneamino)urea;2-(Propan-2-ylidene)hydrazinecarboxamide",
    "duplicated_cas_no": "",
    "SMILES": "N(NC(N)=O)=C(C)C",
    "meta_data": {
        "InChI": "InChI=1S/C4H9N3O/c1-3(2)6-7-4(5)8/h1-2H3,(H3,5,7,8)",
        "InChIKey": null,
        "Canonical SMILES": "O=C(N)NN=C(C)C",
        "Molecular Formula": "C<sub>4</sub>H<sub>9</sub>N<sub>3</sub>O",
        "Molecular Mass": "115.13",
        "Melting Point": "187 °C"
    }
}