{
    "cas_no": "1198-55-6",
    "key_name": "Tetrachlorocatechol",
    "cn_name": null,
    "alternate_name": "1,2-Benzenediol, 3,4,5,6-tetrachloro-;Pyrocatechol, tetrachloro-;3,4,5,6-Tetrachloro-1,2-benzenediol;Tetrachlorocatechol;Tetrachloropyrocatechol;Tetrachloro-1,2-benzenediol;3,4,5,6-Tetrachlorocatechol;Tetrachloro-1,2-hydroquinone;3,4,5,6-Tetrachloro-1,2-dihydroxybenzene;3,4,5,6-Tetrachlorobenzenediol;Tetrachloro-<em>o</em>-hydroquinone;3,4,5,6-Tetrachloropyrocatechol;NSC 29027;3,4,5,6-Tetrachloro-2-hydroxyphenol;Perchlorocatechol",
    "duplicated_cas_no": "",
    "SMILES": "ClC1=C(Cl)C(Cl)=C(O)C(O)=C1Cl",
    "meta_data": {
        "InChI": "InChI=1S/C6H2Cl4O2/c7-1-2(8)4(10)6(12)5(11)3(1)9/h11-12H",
        "InChIKey": null,
        "Canonical SMILES": "ClC=1C(Cl)=C(Cl)C(O)=C(O)C1Cl",
        "Molecular Formula": "C<sub>6</sub>H<sub>2</sub>Cl<sub>4</sub>O<sub>2</sub>",
        "Molecular Mass": "247.89",
        "Melting Point": "194 °C"
    }
}