{
    "cas_no": "174565-63-0",
    "key_name": "7-Nitro-2,4(1<em>H</em>,3<em>H</em>)-quinazolinedione",
    "cn_name": null,
    "alternate_name": "2,4(1<em>H</em>,3<em>H</em>)-Quinazolinedione, 7-nitro-;7-Nitro-2,4(1<em>H</em>,3<em>H</em>)-quinazolinedione;7-Nitroquinazoline-2,4(1<em>H</em>,3<em>H</em>)-dione",
    "duplicated_cas_no": "",
    "SMILES": "O=C1C=2C(=CC(N(=O)=O)=CC2)NC(=O)N1",
    "meta_data": {
        "InChI": "InChI=1S/C8H5N3O4/c12-7-5-2-1-4(11(14)15)3-6(5)9-8(13)10-7/h1-3H,(H2,9,10,12,13)",
        "InChIKey": null,
        "Canonical SMILES": "O=C1NC(=O)C2=CC=C(C=C2N1)N(=O)=O",
        "Molecular Formula": "C<sub>8</sub>H<sub>5</sub>N<sub>3</sub>O<sub>4</sub>",
        "Molecular Mass": "207.14",
        "Melting Point": "337 °C (decomp)"
    }
}