{
    "cas_no": "40133-07-1",
    "key_name": "4,5,6,7-Tetrahydrobenzo[<em>b</em>]thiophene-2-carboxylic acid",
    "cn_name": null,
    "alternate_name": "Benzo[<em>b</em>]thiophene-2-carboxylic acid, 4,5,6,7-tetrahydro-;4,5,6,7-Tetrahydrobenzo[<em>b</em>]thiophene-2-carboxylic acid;4,5,6,7-Tetrahydrobenzothiophene-2-carboxylic acid;4,5,6,7-Tetrahydro-1-benzothiophene-2-carboxylic acid",
    "duplicated_cas_no": "",
    "SMILES": "C(O)(=O)C1=CC2=C(S1)CCCC2",
    "meta_data": {
        "InChI": "InChI=1S/C9H10O2S/c10-9(11)8-5-6-3-1-2-4-7(6)12-8/h5H,1-4H2,(H,10,11)",
        "InChIKey": null,
        "Canonical SMILES": "O=C(O)C=1SC2=C(C1)CCCC2",
        "Molecular Formula": "C<sub>9</sub>H<sub>10</sub>O<sub>2</sub>S",
        "Molecular Mass": "182.24",
        "Melting Point": "183 °C"
    }
}