{
    "cas_no": "2417-72-3",
    "key_name": "Methyl 4-(bromomethyl)benzoate",
    "cn_name": "4-溴甲基苯甲酸甲酯;对溴甲基苯甲酸甲酯;",
    "alternate_name": "Benzoic acid, 4-(bromomethyl)-, methyl ester;<em>p</em>-Toluic acid, α-bromo-, methyl ester;Methyl <em>p</em>-(bromomethyl)benzoate;<em>p</em>-(Bromomethyl)benzoic acid methyl ester;<em>p</em>-(Carbomethoxy)benzyl bromide;Methyl α-bromo-<em>p</em>-toluate;<em>p</em>-(Methoxycarbonyl)benzyl bromide;4-(Carbomethoxy)benzyl bromide;α-Bromo-<em>p</em>-toluic acid methyl ester;4-(Bromomethyl)benzoic acid methyl ester;4-(Methoxycarbonyl)benzyl bromide;Methyl 4-(bromomethyl)benzoate;NSC 83959",
    "duplicated_cas_no": "",
    "SMILES": "C(OC)(=O)C1=CC=C(CBr)C=C1",
    "meta_data": {
        "InChI": "InChI=1S/C9H9BrO2/c1-12-9(11)8-4-2-7(6-10)3-5-8/h2-5H,6H2,1H3",
        "InChIKey": null,
        "Canonical SMILES": "O=C(OC)C1=CC=C(C=C1)CBr",
        "Molecular Formula": "C<sub>9</sub>H<sub>9</sub>BrO<sub>2</sub>",
        "Molecular Mass": "229.07",
        "Boiling Point": "115-117 °C @ Press: 3 Torr",
        "Melting Point": "54-55 °C"
    }
}