{
    "cas_no": "503-93-5",
    "key_name": "Eucarvone",
    "cn_name": null,
    "alternate_name": "2,4-Cycloheptadien-1-one, 2,6,6-trimethyl-;2,6,6-Trimethyl-2,4-cycloheptadien-1-one;Eucarvone;NSC 127544",
    "duplicated_cas_no": "18309-49-4",
    "SMILES": "O=C1CC(C)(C)C=CC=C1C",
    "meta_data": {
        "InChI": "InChI=1S/C10H14O/c1-8-5-4-6-10(2,3)7-9(8)11/h4-6H,7H2,1-3H3",
        "InChIKey": null,
        "Canonical SMILES": "O=C1C(=CC=CC(C)(C)C1)C",
        "Molecular Formula": "C<sub>10</sub>H<sub>14</sub>O",
        "Molecular Mass": "150.22",
        "Boiling Point": "87-89 °C @ Press: 7 Torr",
        "Density": "0.9700 g/cm³ @ Temp: 20 °C"
    }
}