{
    "cas_no": "18267-08-8",
    "key_name": "Zirconium ethoxide",
    "cn_name": null,
    "alternate_name": "Ethanol, zirconium(4+) salt;Ethyl alcohol, zirconium(4+) salt;Zirconium ethoxide;Tetraethoxyzirconium;Zirconium ethoxide (Zr(OEt)<sub>4</sub>);Zirconium tetraethoxide;Tetraethyl zirconate;Zirconium tetrakis(ethoxide);Zirconium(IV) ethoxide;Tetrakis(ethanolato)zirconium",
    "duplicated_cas_no": "1318252-35-5",
    "SMILES": "C(C)O.[Zr]",
    "meta_data": {
        "InChI": "InChI=1S/C2H6O.Zr/c1-2-3;/h3H,2H2,1H3;",
        "InChIKey": null,
        "Canonical SMILES": "[Zr].OCC",
        "Molecular Formula": "C<sub>2</sub>H<sub>6</sub>O.<sup>1</sup>/<sub>4</sub>Zr",
        "Molecular Mass": "",
        "Boiling Point": "180 °C @ Press: 13 Torr",
        "Melting Point": "171-173 °C"
    }
}