{
    "cas_no": "148461-16-9",
    "key_name": "(<em>S</em>)-<em>t</em>-BuPHOX",
    "cn_name": null,
    "alternate_name": "Oxazole, 4-(1,1-dimethylethyl)-2-[2-(diphenylphosphino)phenyl]-4,5-dihydro-, (4<em>S</em>)-;Oxazole, 4-(1,1-dimethylethyl)-2-[2-(diphenylphosphino)phenyl]-4,5-dihydro-, (<em>S</em>)-;(4<em>S</em>)-4-(1,1-Dimethylethyl)-2-[2-(diphenylphosphino)phenyl]-4,5-dihydrooxazole;(<em>S</em>)-4-<em>tert</em>-Butyl-2-[2-(diphenylphosphino)phenyl]-2-oxazoline;(4<em>S</em>)-4-(1,1-dimethylethyl)-2-[2-(diphenylphosphino)phenyl]-4,5-dihydrooxazole;(<em>S</em>)-<em>t</em>-BuPHOX;(4S)-<em>tert</em>-Butyl-2-[2-(diphenylphosphino)phenyl]-4,5-dihydrooxazole;[2-[(4S)-4-<em>tert</em>-Butyl-4,5-dihydro-1,3-oxazol-2-yl]phenyl]-diphenylphosphane",
    "duplicated_cas_no": "",
    "SMILES": "P(C1=C(C=CC=C1)C2=N[C@@H](C(C)(C)C)CO2)(C3=CC=CC=C3)C4=CC=CC=C4",
    "meta_data": {
        "InChI": "InChI=1S/C25H26NOP/c1-25(2,3)23-18-27-24(26-23)21-16-10-11-17-22(21)28(19-12-6-4-7-13-19)20-14-8-5-9-15-20/h4-17,23H,18H2,1-3H3/t23-/m1/s1",
        "InChIKey": null,
        "Canonical SMILES": "N1=C(OCC1C(C)(C)C)C=2C=CC=CC2P(C=3C=CC=CC3)C=4C=CC=CC4",
        "Molecular Formula": "C<sub>25</sub>H<sub>26</sub>NOP",
        "Molecular Mass": "387.45",
        "Melting Point": "113-114 °C"
    }
}