{
    "cas_no": "820-71-3",
    "key_name": "Methallyl acetate",
    "cn_name": null,
    "alternate_name": "2-Propen-1-ol, 2-methyl-, 1-acetate;2-Propen-1-ol, 2-methyl-, acetate;β-Methallyl acetate;2-Methylallyl acetate;1-Acetoxy-2-methyl-2-propene;Methallyl acetate;3-Acetoxy-2-methylprop-1-ene;2-Methyl-2-propen-1-ol acetate;Acetic acid 2-methyl-2-propenyl ester;2-Methyl-2-propenyl acetate;Acetic acid methallyl ester",
    "duplicated_cas_no": "",
    "SMILES": "C(OC(C)=O)C(C)=C",
    "meta_data": {
        "InChI": "InChI=1S/C6H10O2/c1-5(2)4-8-6(3)7/h1,4H2,2-3H3",
        "InChIKey": null,
        "Canonical SMILES": "O=C(OCC(=C)C)C",
        "Molecular Formula": "C<sub>6</sub>H<sub>10</sub>O<sub>2</sub>",
        "Molecular Mass": "114.14",
        "Boiling Point": "124 °C"
    }
}