{
    "cas_no": "30433-91-1",
    "key_name": "2-Thiopheneethanamine",
    "cn_name": "2-噻吩乙胺;噻吩-2-乙胺;",
    "alternate_name": "2-Thiopheneethanamine;2-Thiopheneethylamine;2-(2-Thienyl)ethylamine;2-(2-Aminoethyl)thiophene;2-(2-Thienyl)ethanamine;β-(2-Thienyl)ethylamine;2-(Thiophen-2-yl)ethylamine;2-(2-Thiophene)ethylamine;[2-(Thiophene-2-yl)ethyl]amine;2-(2-Thienyl)-1-ethanamine;2-(Thiophen-2-yl)ethanamine;2-Thienylethylamine;2-Thienoethylamine;2-(Thiophen-2-yl)ethan-1-amine",
    "duplicated_cas_no": "",
    "SMILES": "C(CN)C1=CC=CS1",
    "meta_data": {
        "InChI": "InChI=1S/C6H9NS/c7-4-3-6-2-1-5-8-6/h1-2,5H,3-4,7H2",
        "InChIKey": null,
        "Canonical SMILES": "S1C=CC=C1CCN",
        "Molecular Formula": "C<sub>6</sub>H<sub>9</sub>NS",
        "Molecular Mass": "127.21",
        "Boiling Point": "200-201 °C @ Press: 750 Torr",
        "Density": "1.087 g/cm³ @ Temp: 15 °C"
    }
}