{
    "cas_no": "873-75-6",
    "key_name": "4-Bromobenzyl alcohol",
    "cn_name": "4-溴苄醇;对溴苄醇;对溴苯甲醇;",
    "alternate_name": "Benzenemethanol, 4-bromo-;Benzyl alcohol, <em>p</em>-bromo-;4-Bromobenzenemethanol;<em>p</em>-Bromobenzyl alcohol;4-Bromobenzyl alcohol;(<em>p</em>-Bromophenyl)methanol;(4-Bromophenyl)methanol;4-Hydroxymethyl-1-bromobenzene;1-(<em>p</em>-Bromophenyl)methanol;1-Bromo-4-(hydroxymethyl)benzene",
    "duplicated_cas_no": "",
    "SMILES": "C(O)C1=CC=C(Br)C=C1",
    "meta_data": {
        "InChI": "InChI=1S/C7H7BrO/c8-7-3-1-6(5-9)2-4-7/h1-4,9H,5H2",
        "InChIKey": null,
        "Canonical SMILES": "BrC1=CC=C(C=C1)CO",
        "Molecular Formula": "C<sub>7</sub>H<sub>7</sub>BrO",
        "Molecular Mass": "187.03",
        "Boiling Point": "125-140 °C @ Press: 11 Torr",
        "Melting Point": "76.5-77.0 °C"
    }
}