{
    "cas_no": "112-42-5",
    "key_name": "1-Undecanol",
    "cn_name": "1-十一醇;",
    "alternate_name": "1-Undecanol;Undecyl alcohol;Hendecanoic alcohol;1-Hendecanol;Hendecyl alcohol;<em>n</em>-Undecyl alcohol;<em>n</em>-Undecan-1-ol;Tip-Nip;Undecanol;Neodol 1;1-Undecyl alcohol;1-Hydroxyundecane;Alchem 11;NSC 403667;Exxal 11S;Linevol 11",
    "duplicated_cas_no": "",
    "SMILES": "C(CCCCCO)CCCCC",
    "meta_data": {
        "InChI": "InChI=1S/C11H24O/c1-2-3-4-5-6-7-8-9-10-11-12/h12H,2-11H2,1H3",
        "InChIKey": null,
        "Canonical SMILES": "OCCCCCCCCCCC",
        "Molecular Formula": "C<sub>11</sub>H<sub>24</sub>O",
        "Molecular Mass": "172.31",
        "Boiling Point": "243 °C @ Press: 760 Torr",
        "Melting Point": "19 °C",
        "Density": "0.8298 g/cm³ @ Temp: 20 °C"
    }
}