{
    "cas_no": "120-72-9",
    "key_name": "Indole",
    "cn_name": "吲哚;",
    "alternate_name": "1<em>H</em>-Indole;Indole;1-Azaindene;1-Benzazole;2,3-Benzopyrrole;Ketole;Benzo[<em>b</em>]pyrrole;NSC 1964",
    "duplicated_cas_no": "",
    "SMILES": "C1=2C(NC=C1)=CC=CC2",
    "meta_data": {
        "InChI": "InChI=1S/C8H7N/c1-2-4-8-7(3-1)5-6-9-8/h1-6,9H",
        "InChIKey": null,
        "Canonical SMILES": "C=1C=CC=2NC=CC2C1",
        "Molecular Formula": "C<sub>8</sub>H<sub>7</sub>N",
        "Molecular Mass": "117.15",
        "Boiling Point": "128-133 °C @ Press: 28 Torr",
        "Melting Point": "52 °C",
        "Density": "1 x 10<sup>-6</sup> g/cm³ @ Temp: 25 °C"
    }
}