{
    "cas_no": "85-85-8",
    "key_name": "1-(2′-Pyridylazo)-2-naphthol",
    "cn_name": "1-(2-吡啶偶氮)-2-萘酚;",
    "alternate_name": "2-Naphthalenol, 1-[2-(2-pyridinyl)diazenyl]-;2-Naphthol, 1-(2-pyridylazo)-;2-Naphthalenol, 1-(2-pyridinylazo)-;Pyridine, 2-(2-hydroxy-1-naphthylazo)-;1-[2-(2-Pyridinyl)diazenyl]-2-naphthalenol;2-Hydroxy-1-(2-pyridylazo)naphthalene;1-(2-Pyridylazo)-2-hydroxynaphthalene;1-(2-Pyridylazo)-2-naphthol;PAN (indicator);PAN;1-(Pyridin-2-azo)-2-naphthol;1-(2-pyridylazo)naphthol-2;1-(2′-Pyridylazo)-2-naphthol;NSC 5332;2-Hydroxy-1-[pyridin-2-yldiazenyl]naphthalene;PAN 1",
    "duplicated_cas_no": "",
    "SMILES": "N(=NC1=CC=CC=N1)C=2C3=C(C=CC2O)C=CC=C3",
    "meta_data": {
        "InChI": "InChI=1S/C15H11N3O/c19-13-9-8-11-5-1-2-6-12(11)15(13)18-17-14-7-3-4-10-16-14/h1-10,19H",
        "InChIKey": null,
        "Canonical SMILES": "OC=1C=CC=2C=CC=CC2C1N=NC3=NC=CC=C3",
        "Molecular Formula": "C<sub>15</sub>H<sub>11</sub>N<sub>3</sub>O",
        "Molecular Mass": "249.27",
        "Melting Point": "137 °C"
    }
}