{
    "cas_no": "2523-42-4",
    "key_name": "2-Iodo-9<em>H</em>-fluorene",
    "cn_name": "2-碘芴;2-碘芴;",
    "alternate_name": "9<em>H</em>-Fluorene, 2-iodo-;Fluorene, 2-iodo-;2-Iodo-9<em>H</em>-fluorene;2-Iodofluorene;NSC 12354",
    "duplicated_cas_no": "",
    "SMILES": "IC=1C=C2C(C=3C(C2)=CC=CC3)=CC1",
    "meta_data": {
        "InChI": "InChI=1S/C13H9I/c14-11-5-6-13-10(8-11)7-9-3-1-2-4-12(9)13/h1-6,8H,7H2",
        "InChIKey": null,
        "Canonical SMILES": "IC1=CC=C2C=3C=CC=CC3CC2=C1",
        "Molecular Formula": "C<sub>13</sub>H<sub>9</sub>I",
        "Molecular Mass": "292.11",
        "Melting Point": "128 °C"
    }
}