{
    "cas_no": "523-27-3",
    "key_name": "9,10-Dibromoanthracene",
    "cn_name": "9,10-二溴蒽;",
    "alternate_name": "Anthracene, 9,10-dibromo-;9,10-Dibromoanthracene;NSC 6263",
    "duplicated_cas_no": "",
    "SMILES": "BrC=1C2=C(C(Br)=C3C1C=CC=C3)C=CC=C2",
    "meta_data": {
        "InChI": "InChI=1S/C14H8Br2/c15-13-9-5-1-2-6-10(9)14(16)12-8-4-3-7-11(12)13/h1-8H",
        "InChIKey": null,
        "Canonical SMILES": "BrC=1C=2C=CC=CC2C(Br)=C3C=CC=CC13",
        "Molecular Formula": "C<sub>14</sub>H<sub>8</sub>Br<sub>2</sub>",
        "Molecular Mass": "336.02",
        "Melting Point": "226 °C",
        "Density": "1.983 g/cm³"
    }
}