{
    "cas_no": "14850-22-7",
    "key_name": "(3<em>Z</em>)-3-Octene",
    "cn_name": "顺-3-辛烯;",
    "alternate_name": "3-Octene, (3<em>Z</em>)-;3-Octene, (<em>Z</em>)-;3-Octene, <em>cis</em>-;(3<em>Z</em>)-3-Octene;<em>cis</em>-3-Octene;(<em>Z</em>)-3-Octene;γ-<em>cis</em>-Octene",
    "duplicated_cas_no": "",
    "SMILES": "C(/C=C\\CC)CCC",
    "meta_data": {
        "InChI": "InChI=1S/C8H16/c1-3-5-7-8-6-4-2/h5,7H,3-4,6,8H2,1-2H3/b7-5-",
        "InChIKey": null,
        "Canonical SMILES": "C(=CCCCC)CC",
        "Molecular Formula": "C<sub>8</sub>H<sub>16</sub>",
        "Molecular Mass": "112.21",
        "Boiling Point": "122.9 °C",
        "Melting Point": "-126 °C",
        "Density": "0.71470 g/cm³ @ Temp: 25 °C"
    }
}