{
    "cas_no": "105-43-1",
    "key_name": "3-Methylpentanoic acid",
    "cn_name": "3-甲基戊酸;",
    "alternate_name": "Pentanoic acid, 3-methyl-;Valeric acid, 3-methyl-;Valeric acid, β-methyl-;3-Methylpentanoic acid;β-Methylvaleric acid;3-Methylvaleric acid;3-Methyl-<em>n</em>-valeric acid",
    "duplicated_cas_no": "22160-40-3",
    "SMILES": "C(CC(O)=O)(CC)C",
    "meta_data": {
        "InChI": "InChI=1S/C6H12O2/c1-3-5(2)4-6(7)8/h5H,3-4H2,1-2H3,(H,7,8)",
        "InChIKey": null,
        "Canonical SMILES": "O=C(O)CC(C)CC",
        "Molecular Formula": "C<sub>6</sub>H<sub>12</sub>O<sub>2</sub>",
        "Molecular Mass": "116.16",
        "Boiling Point": "193-196 °C @ Press: 743 Torr",
        "Melting Point": "-41.6 °C",
        "Density": "0.9262 g/cm³ @ Temp: 20 °C"
    }
}