{
    "cas_no": "7460-43-7",
    "key_name": "Rubiadin 1-methyl ether",
    "cn_name": null,
    "alternate_name": "9,10-Anthracenedione, 3-hydroxy-1-methoxy-2-methyl-;Anthraquinone, 3-hydroxy-1-methoxy-2-methyl-;3-Hydroxy-1-methoxy-2-methyl-9,10-anthracenedione;Rubiadin 1-methyl ether;NSC 59063;3-Hydroxy-1-methoxy-2-methylanthraquinone",
    "duplicated_cas_no": "",
    "SMILES": "O(C)C1=C2C(C(=O)C=3C(C2=O)=CC=CC3)=CC(O)=C1C",
    "meta_data": {
        "InChI": "InChI=1S/C16H12O4/c1-8-12(17)7-11-13(16(8)20-2)15(19)10-6-4-3-5-9(10)14(11)18/h3-7,17H,1-2H3",
        "InChIKey": null,
        "Canonical SMILES": "O=C1C=2C=CC=CC2C(=O)C3=C(OC)C(=C(O)C=C13)C",
        "Molecular Formula": "C<sub>16</sub>H<sub>12</sub>O<sub>4</sub>",
        "Molecular Mass": "268.26",
        "Melting Point": "291 °C"
    }
}