{
    "cas_no": "79-39-0",
    "key_name": "Methacrylamide",
    "cn_name": "甲基丙烯酰胺;2-甲基丙烯酰胺;",
    "alternate_name": "2-Propenamide, 2-methyl-;Methacrylamide;2-Methyl-2-propenamide;Methacrylic acid amide;Methacrylic amide;2-Methylpropenamide;2-Methylacrylamide;NSC 23772;NSC 24147",
    "duplicated_cas_no": "",
    "SMILES": "C(C(N)=O)(C)=C",
    "meta_data": {
        "InChI": "InChI=1S/C4H7NO/c1-3(2)4(5)6/h1H2,2H3,(H2,5,6)",
        "InChIKey": null,
        "Canonical SMILES": "O=C(N)C(=C)C",
        "Molecular Formula": "C<sub>4</sub>H<sub>7</sub>NO",
        "Molecular Mass": "85.10",
        "Melting Point": "105 °C"
    }
}