{
    "cas_no": "922-65-6",
    "key_name": "1,4-Pentadien-3-ol",
    "cn_name": "1,4-戊二烯-3-醇;",
    "alternate_name": "1,4-Pentadien-3-ol;Divinylcarbinol;Diethenylmethyl alcohol;3-Hydroxy-1,4-pentadiene;Divinylmethanol",
    "duplicated_cas_no": "",
    "SMILES": "C(C=C)(C=C)O",
    "meta_data": {
        "InChI": "InChI=1S/C5H8O/c1-3-5(6)4-2/h3-6H,1-2H2",
        "InChIKey": null,
        "Canonical SMILES": "OC(C=C)C=C",
        "Molecular Formula": "C<sub>5</sub>H<sub>8</sub>O",
        "Molecular Mass": "84.12",
        "Boiling Point": "115.5 °C",
        "Density": "0.8648 g/cm³ @ Temp: 19 °C"
    }
}