{
    "cas_no": "5412-98-6",
    "key_name": "Tetradecyl ether",
    "cn_name": "正十四烷基醚;",
    "alternate_name": "Tetradecane, 1-(tetradecyloxy)-;Tetradecane, 1,1′-oxybis-;Tetradecyl ether;1-(Tetradecyloxy)tetradecane;Ditetradecyl ether;Bis(tetradecyl) ether;Dimyristyl ether;NSC 6360;NSC 78491;Di-<em>n</em>-tetradecyl ether",
    "duplicated_cas_no": "",
    "SMILES": "O(CCCCCCCCCCCCCC)CCCCCCCCCCCCCC",
    "meta_data": {
        "InChI": "InChI=1S/C28H58O/c1-3-5-7-9-11-13-15-17-19-21-23-25-27-29-28-26-24-22-20-18-16-14-12-10-8-6-4-2/h3-28H2,1-2H3",
        "InChIKey": null,
        "Canonical SMILES": "O(CCCCCCCCCCCCCC)CCCCCCCCCCCCCC",
        "Molecular Formula": "C<sub>28</sub>H<sub>58</sub>O",
        "Molecular Mass": "410.76",
        "Melting Point": "36-37 °C",
        "Density": "0.8117 g/cm³ @ Temp: 43 °C"
    }
}