{
    "cas_no": "21440-97-1",
    "key_name": "Brofoxine",
    "cn_name": null,
    "alternate_name": "2<em>H</em>-3,1-Benzoxazin-2-one, 6-bromo-1,4-dihydro-4,4-dimethyl-;6-Bromo-1,4-dihydro-4,4-dimethyl-2<em>H</em>-3,1-benzoxazin-2-one;Brofoxine;FI 6820;6-Bromo-4,4-dimethyl-1,4-dihydro-2<em>H</em>-3,1-benzoxazin-2-one;6-Bromo-4,4-dimethyl-1<em>H</em>-benzo[<em>d</em>][1,3]oxazin-2(4<em>H</em>)-one",
    "duplicated_cas_no": "",
    "SMILES": "CC1(C)C=2C(NC(=O)O1)=CC=C(Br)C2",
    "meta_data": {
        "InChI": "InChI=1S/C10H10BrNO2/c1-10(2)7-5-6(11)3-4-8(7)12-9(13)14-10/h3-5H,1-2H3,(H,12,13)",
        "InChIKey": null,
        "Canonical SMILES": "O=C1OC(C2=CC(Br)=CC=C2N1)(C)C",
        "Molecular Formula": "C<sub>10</sub>H<sub>10</sub>BrNO<sub>2</sub>",
        "Molecular Mass": "256.10",
        "Melting Point": "203-205 °C"
    }
}