{
    "cas_no": "2312-73-4",
    "key_name": "<em>N</em>-(Phenylmethyl)-9-(tetrahydro-2<em>H</em>-pyran-2-yl)-9<em>H</em>-purin-6-amine",
    "cn_name": "N-苄基-9-(四氢-2H-吡喃-2-基)腺嘌呤;苄吡喃腺嘌呤;",
    "alternate_name": "9<em>H</em>-Purin-6-amine, <em>N</em>-(phenylmethyl)-9-(tetrahydro-2<em>H</em>-pyran-2-yl)-;Adenine, <em>N</em>-benzyl-9-(tetrahydro-2<em>H</em>-pyran-2-yl)-;Adenine, <em>N</em>-benzyl-9-(tetrahydropyran-2-yl)-;<em>N</em>-(Phenylmethyl)-9-(tetrahydro-2<em>H</em>-pyran-2-yl)-9<em>H</em>-purin-6-amine;SD 8339;6-(Benzylamino)-9-(2-tetrahydropyranyl)-9<em>H</em>-purine;<em>N</em><sup>6</sup>-Benzyl-9-(tetrahydropyranyl)adenine;6-(Benzylamino)-9-(2-tetrahydropyranyl)purine;PBA;BPA;6-(Benzylamine)-9-(2-tetrahydropyranyl)-9<em>H</em>-purine;PBA (growth stimulant);ABG 3039;N<sup>6</sup>-Benzyl-9-(2-tetrahydropyranyl)adenine;Acell",
    "duplicated_cas_no": "3559-02-2;61764-68-9;69152-46-1",
    "SMILES": "N(CC1=CC=CC=C1)C2=C3C(N(C=N3)C4CCCCO4)=NC=N2",
    "meta_data": {
        "InChI": "InChI=1S/C17H19N5O/c1-2-6-13(7-3-1)10-18-16-15-17(20-11-19-16)22(12-21-15)14-8-4-5-9-23-14/h1-3,6-7,11-12,14H,4-5,8-10H2,(H,18,19,20)",
        "InChIKey": null,
        "Canonical SMILES": "N=1C=NC2=C(N=CN2C3OCCCC3)C1NCC=4C=CC=CC4",
        "Molecular Formula": "C<sub>17</sub>H<sub>19</sub>N<sub>5</sub>O",
        "Molecular Mass": "309.37",
        "Melting Point": "108-110 °C",
        "Density": "1.272 g/cm³"
    }
}