{
    "cas_no": "4076-02-2",
    "key_name": "Unithiol",
    "cn_name": "2,3-二巯基丙磺酸钠;",
    "alternate_name": "1-Propanesulfonic acid, 2,3-dimercapto-, sodium salt (1:1);1-Propanesulfonic acid, 2,3-dimercapto-, monosodium salt;Unithiol;Sodium 2,3-dimercaptopropanesulfonate;Sodium 2,3-dimercapto-1-propanesulfonate;Unitiol;Sodium 2,3-dimercaptopropan-1-sulfonate;DMPS;Dimaval;MeSH ID: D014494",
    "duplicated_cas_no": "37260-06-3;85549-76-4;2241853-51-8",
    "SMILES": "C(S(=O)(=O)O)C(CS)S.[Na]",
    "meta_data": {
        "InChI": "InChI=1S/C3H8O3S3.Na/c4-9(5,6)2-3(8)1-7;/h3,7-8H,1-2H2,(H,4,5,6);",
        "InChIKey": null,
        "Canonical SMILES": "[Na].O=S(=O)(O)CC(S)CS",
        "Molecular Formula": "C<sub>3</sub>H<sub>8</sub>O<sub>3</sub>S<sub>3</sub>.Na",
        "Molecular Mass": "",
        "Melting Point": "235 °C"
    }
}