{
    "cas_no": "37418-88-5",
    "key_name": "3-Hydroxyphthalic anhydride",
    "cn_name": "3-羟基苯二甲酸酐;",
    "alternate_name": "1,3-Isobenzofurandione, 4-hydroxy-;4-Hydroxy-1,3-isobenzofurandione;3-Hydroxyphthalic anhydride;4-Hydroxyisobenzofuran-1,3-dione;NSC 80858;4-Hydroxy-2-benzofuran-1,3-dione;4-Hydroxy-1,3-dihydro-2-benzofuran-1,3-dione;3-Hydroxyphthalic acid anhydride;SM1-175",
    "duplicated_cas_no": "",
    "SMILES": "OC1=C2C(C(=O)OC2=O)=CC=C1",
    "meta_data": {
        "InChI": "InChI=1S/C8H4O4/c9-5-3-1-2-4-6(5)8(11)12-7(4)10/h1-3,9H",
        "InChIKey": null,
        "Canonical SMILES": "O=C1OC(=O)C=2C(O)=CC=CC12",
        "Molecular Formula": "C<sub>8</sub>H<sub>4</sub>O<sub>4</sub>",
        "Molecular Mass": "164.12",
        "Melting Point": "150-190 °C"
    }
}