{
    "cas_no": "27361-16-6",
    "key_name": "2-Butoxypyridine",
    "cn_name": "2-正丁氧基吡啶;",
    "alternate_name": "Pyridine, 2-butoxy-;2-Butoxypyridine;NSC 30253",
    "duplicated_cas_no": "",
    "SMILES": "O(CCCC)C1=CC=CC=N1",
    "meta_data": {
        "InChI": "InChI=1S/C9H13NO/c1-2-3-8-11-9-6-4-5-7-10-9/h4-7H,2-3,8H2,1H3",
        "InChIKey": null,
        "Canonical SMILES": "N=1C=CC=CC1OCCCC",
        "Molecular Formula": "C<sub>9</sub>H<sub>13</sub>NO",
        "Molecular Mass": "151.21",
        "Boiling Point": "80-82 °C @ Press: 10 Torr",
        "Density": "0.9702 g/cm³ @ Temp: 20 °C"
    }
}