{
    "cas_no": "1530-89-8",
    "key_name": "4-Morpholinecarbonitrile",
    "cn_name": "4-吗啉甲腈;4-吗琳甲腈;4-吗啉腈;",
    "alternate_name": "4-Morpholinecarbonitrile;4-Cyanomorpholine;<em>N</em>-Morpholinonitrile;<em>N</em>-Cyanomorpholine;Morpholinocarbonitrile;Morpholinocyanamide;NSC 44243;Morpholine-4-nitrile",
    "duplicated_cas_no": "2123479-68-3",
    "SMILES": "C(#N)N1CCOCC1",
    "meta_data": {
        "InChI": "InChI=1S/C5H8N2O/c6-5-7-1-3-8-4-2-7/h1-4H2",
        "InChIKey": null,
        "Canonical SMILES": "N#CN1CCOCC1",
        "Molecular Formula": "C<sub>5</sub>H<sub>8</sub>N<sub>2</sub>O",
        "Molecular Mass": "112.13",
        "Boiling Point": "117-119 °C @ Press: 15 Torr"
    }
}