{
    "cas_no": "80866-77-9",
    "key_name": "1-Chloro-2-methoxy-3-nitrobenzene",
    "cn_name": null,
    "alternate_name": "Benzene, 1-chloro-2-methoxy-3-nitro-;Anisole, 2-chloro-6-nitro-;1-Chloro-2-methoxy-3-nitrobenzene;2-Chloro-6-nitroanisole",
    "duplicated_cas_no": "",
    "SMILES": "O(C)C1=C(N(=O)=O)C=CC=C1Cl",
    "meta_data": {
        "InChI": "InChI=1S/C7H6ClNO3/c1-12-7-5(8)3-2-4-6(7)9(10)11/h2-4H,1H3",
        "InChIKey": null,
        "Canonical SMILES": "O=N(=O)C=1C=CC=C(Cl)C1OC",
        "Molecular Formula": "C<sub>7</sub>H<sub>6</sub>ClNO<sub>3</sub>",
        "Molecular Mass": "187.58",
        "Melting Point": "54 °C"
    }
}