{
    "cas_no": "304-88-1",
    "key_name": "<em>N</em>-Benzoyl-<em>N</em>-phenylhydroxylamine",
    "cn_name": "N-苯甲酰苯基羟胺;",
    "alternate_name": "Benzamide, <em>N</em>-hydroxy-<em>N</em>-phenyl-;Benzohydroxamic acid, <em>N</em>-phenyl-;<em>N</em>-Hydroxy-<em>N</em>-phenylbenzamide;<em>N</em>-Phenylbenzohydroxamic acid;<em>N</em>-Benzoyl-<em>N</em>-phenylhydroxylamine;<em>N</em>-Hydroxybenzanilide;BPHA;<em>N</em>-Benzoyl-<em>N</em>-phenylhydroxamic acid;<em>N</em>-Phenyl <em>N</em>-benzoylhydroxamic acid;NSC 42454",
    "duplicated_cas_no": "",
    "SMILES": "C(N(O)C1=CC=CC=C1)(=O)C2=CC=CC=C2",
    "meta_data": {
        "InChI": "InChI=1S/C13H11NO2/c15-13(11-7-3-1-4-8-11)14(16)12-9-5-2-6-10-12/h1-10,16H",
        "InChIKey": null,
        "Canonical SMILES": "O=C(C=1C=CC=CC1)N(O)C=2C=CC=CC2",
        "Molecular Formula": "C<sub>13</sub>H<sub>11</sub>NO<sub>2</sub>",
        "Molecular Mass": "213.23",
        "Melting Point": "121-122 °C"
    }
}