{
    "cas_no": "16618-72-7",
    "key_name": "(±)-3-Phenyl-1-indanone",
    "cn_name": "3-苯基-1-茚酮;",
    "alternate_name": "1<em>H</em>-Inden-1-one, 2,3-dihydro-3-phenyl-;1-Indanone, 3-phenyl-;2,3-Dihydro-3-phenyl-1<em>H</em>-inden-1-one;3-Phenylindan-1-one;3-Phenylindanone;NSC 82364;(±)-3-Phenyl-1-indanone;3-Phenyl-2,3-dihydroinden-1-one;3-Phenyl-2,3-dihydro-1<em>H</em>-inden-1-one",
    "duplicated_cas_no": "7282-67-9",
    "SMILES": "O=C1CC(C=2C1=CC=CC2)C3=CC=CC=C3",
    "meta_data": {
        "InChI": "InChI=1S/C15H12O/c16-15-10-14(11-6-2-1-3-7-11)12-8-4-5-9-13(12)15/h1-9,14H,10H2",
        "InChIKey": null,
        "Canonical SMILES": "O=C1C=2C=CC=CC2C(C=3C=CC=CC3)C1",
        "Molecular Formula": "C<sub>15</sub>H<sub>12</sub>O",
        "Molecular Mass": "208.26",
        "Boiling Point": "180 °C @ Press: 2 Torr",
        "Melting Point": "77-78 °C"
    }
}