{
    "cas_no": "3529-10-0",
    "key_name": "<em>N</em>,<em>N</em>-Dimethyl-1,4-butanediamine",
    "cn_name": "4-二甲基氨基丁胺;4-二甲基氨基丁胺;",
    "alternate_name": "1,4-Butanediamine, <em>N</em><sup>1</sup>,<em>N</em><sup>1</sup>-dimethyl-;1,4-Butanediamine, <em>N</em>,<em>N</em>-dimethyl-;<em>N</em><sup>1</sup>,<em>N</em><sup>1</sup>-Dimethyl-1,4-butanediamine;Dimethylaminobutylamine;<em>N</em>,<em>N</em>-Dimethyl-1,4-butanediamine;4-(Dimethylamino)butylamine;<em>N</em>,<em>N</em>-Dimethylputrescine;<em>N</em>,<em>N</em>-Dimethyltetramethylenediamine;4-(<em>N</em>,<em>N</em>-Dimethylamino)butylamine;1-Amino-4-(dimethylamino)butane;<em>N</em>-(4-Aminobutyl)-<em>N</em>,<em>N</em>-dimethylamine;4-(Dimethylamino)-1-butylamine;<em>N</em>′,<em>N</em>′-Dimethylbutane-1,4-diamine;(4-Aminobutyl)dimethylamine;<em>N</em>,<em>N</em>-Dimethylbutanediamine;4-Dimethylaminobutan-1-amine",
    "duplicated_cas_no": "1260423-40-2",
    "SMILES": "C(CCCN)N(C)C",
    "meta_data": {
        "InChI": "InChI=1S/C6H16N2/c1-8(2)6-4-3-5-7/h3-7H2,1-2H3",
        "InChIKey": null,
        "Canonical SMILES": "NCCCCN(C)C",
        "Molecular Formula": "C<sub>6</sub>H<sub>16</sub>N<sub>2</sub>",
        "Molecular Mass": "116.20",
        "Boiling Point": "49-50 °C @ Press: 7 Torr",
        "Melting Point": "60 °C",
        "Density": "0.8179 g/cm³ @ Temp: 20 °C"
    }
}