{
    "cas_no": "108-28-1",
    "key_name": "Protoanemonin",
    "cn_name": "原白头翁素;原白头翁素;",
    "alternate_name": "2(5<em>H</em>)-Furanone, 5-methylene-;Protoanemonin;2,4-Pentadienoic acid, 4-hydroxy-, γ-lactone;5-Methylene-2(5<em>H</em>)-furanone;5-Methylene-2-oxodihydrofuran;5-Methylene-2,5-dihydrofuran-2-one;Isomycin;4-Hydroxy-2,4-pentadienoic acid lactone;4-Hydroxy-2,4-pentadienoic acid γ-lactone;2,4-Pentadien-4-olide;Protoanemonene;γ-Methylenebutenolide",
    "duplicated_cas_no": "",
    "SMILES": "C=C1OC(=O)C=C1",
    "meta_data": {
        "InChI": "InChI=1S/C5H4O2/c1-4-2-3-5(6)7-4/h2-3H,1H2",
        "InChIKey": null,
        "Canonical SMILES": "O=C1OC(=C)C=C1",
        "Molecular Formula": "C<sub>5</sub>H<sub>4</sub>O<sub>2</sub>",
        "Molecular Mass": "96.08",
        "Boiling Point": "45 °C",
        "Melting Point": "&lt;25 °C"
    }
}