{
    "cas_no": "110-16-7",
    "key_name": "Maleic acid",
    "cn_name": "马来酸;顺丁烯二酸;",
    "alternate_name": "2-Butenedioic acid (2<em>Z</em>)-;Maleic acid;2-Butenedioic acid (<em>Z</em>)-;(2<em>Z</em>)-2-Butenedioic acid;<em>cis</em>-Butenedioic acid;<em>cis</em>-1,2-Ethylenedicarboxylic acid;Maleinic acid;Toxilic acid;2-Butenedioic acid, (<em>Z</em>)-;<em>cis</em>-2-Butenedioic acid;Scotchbond Multipurpose Etchant;Malezid CM;(2<em>Z</em>)-Butene-2-dioic acid;(<em>Z</em>)-2-Butenedioic acid;MeSH ID: D008298;Beckacite F 896",
    "duplicated_cas_no": "1975169-66-4",
    "SMILES": "C(=C\\C(O)=O)\\C(O)=O",
    "meta_data": {
        "InChI": "InChI=1S/C4H4O4/c5-3(6)1-2-4(7)8/h1-2H,(H,5,6)(H,7,8)/b2-1-",
        "InChIKey": null,
        "Canonical SMILES": "O=C(O)C=CC(=O)O",
        "Molecular Formula": "C<sub>4</sub>H<sub>4</sub>O<sub>4</sub>",
        "Molecular Mass": "116.07",
        "Boiling Point": "138 °C",
        "Melting Point": "131 °C",
        "Density": "1.590 g/cm³ @ Temp: 20 °C"
    }
}