{
    "cas_no": "138564-59-7",
    "key_name": "5-Methyl-2-[(2-nitrophenyl)amino]-3-thiophenecarbonitrile",
    "cn_name": "2-(2-硝基苯胺基)-3-氰基-5-甲基噻吩;",
    "alternate_name": "3-Thiophenecarbonitrile, 5-methyl-2-[(2-nitrophenyl)amino]-;5-Methyl-2-[(2-nitrophenyl)amino]-3-thiophenecarbonitrile;2-(2-Nitroanilino)-5-methylthiophene-3-carbonitrile;ROY",
    "duplicated_cas_no": "216439-51-9",
    "SMILES": "N(C1=C(C#N)C=C(C)S1)C2=C(N(=O)=O)C=CC=C2",
    "meta_data": {
        "InChI": "InChI=1S/C12H9N3O2S/c1-8-6-9(7-13)12(18-8)14-10-4-2-3-5-11(10)15(16)17/h2-6,14H,1H3",
        "InChIKey": null,
        "Canonical SMILES": "N#CC=1C=C(SC1NC=2C=CC=CC2N(=O)=O)C",
        "Molecular Formula": "C<sub>12</sub>H<sub>9</sub>N<sub>3</sub>O<sub>2</sub>S",
        "Molecular Mass": "259.28",
        "Melting Point": "97-100 °C"
    }
}