{
    "cas_no": "14068-53-2",
    "key_name": "2-Amino-5-ethyl-1,3,4-thiadiazole",
    "cn_name": "2-氨基-5-乙基-1,3,4-噻二唑;",
    "alternate_name": "1,3,4-Thiadiazol-2-amine, 5-ethyl-;1,3,4-Thiadiazole, 2-amino-5-ethyl-;5-Ethyl-1,3,4-thiadiazol-2-amine;2-Amino-5-ethyl-1,3,4-thiadiazole;2-Ethyl-5-amino-1,3,4-thiadiazole;5-Ethyl-2-amino-1,3,4-thiadiazole;5-Amino-2-ethyl-1,3,4-thiadiazole;NSC 75711;(5-Ethyl-1,3,4-thiadiazol-2-yl)amine",
    "duplicated_cas_no": "",
    "SMILES": "C(C)C=1SC(N)=NN1",
    "meta_data": {
        "InChI": "InChI=1S/C4H7N3S/c1-2-3-6-7-4(5)8-3/h2H2,1H3,(H2,5,7)",
        "InChIKey": null,
        "Canonical SMILES": "N=1N=C(SC1N)CC",
        "Molecular Formula": "C<sub>4</sub>H<sub>7</sub>N<sub>3</sub>S",
        "Molecular Mass": "129.18",
        "Melting Point": "188-193 °C"
    }
}