{
    "cas_no": "336-08-3",
    "key_name": "2,2,3,3,4,4,5,5-Octafluorohexanedioic acid",
    "cn_name": "八氟己二酸;八氟己二酸;",
    "alternate_name": "Hexanedioic acid, 2,2,3,3,4,4,5,5-octafluoro-;Hexanedioic acid, octafluoro-;2,2,3,3,4,4,5,5-Octafluorohexanedioic acid;Octafluorohexanedioic acid;Perfluoroadipic acid;Octafluoroadipic acid",
    "duplicated_cas_no": "62705-60-6",
    "SMILES": "C(C(C(C(O)=O)(F)F)(F)F)(C(C(O)=O)(F)F)(F)F",
    "meta_data": {
        "InChI": "InChI=1S/C6H2F8O4/c7-3(8,1(15)16)5(11,12)6(13,14)4(9,10)2(17)18/h(H,15,16)(H,17,18)",
        "InChIKey": null,
        "Canonical SMILES": "O=C(O)C(F)(F)C(F)(F)C(F)(F)C(F)(F)C(=O)O",
        "Molecular Formula": "C<sub>6</sub>H<sub>2</sub>F<sub>8</sub>O<sub>4</sub>",
        "Molecular Mass": "290.06",
        "Melting Point": "134 °C"
    }
}