{
    "cas_no": "7650-84-2",
    "key_name": "Diphenylpropylphosphine",
    "cn_name": "二苯基丙基磷;",
    "alternate_name": "Phosphine, diphenylpropyl-;Diphenylpropylphosphine;Propyldiphenylphosphine;<em>n</em>-Propyldiphenylphosphine",
    "duplicated_cas_no": "",
    "SMILES": "P(CCC)(C1=CC=CC=C1)C2=CC=CC=C2",
    "meta_data": {
        "InChI": "InChI=1S/C15H17P/c1-2-13-16(14-9-5-3-6-10-14)15-11-7-4-8-12-15/h3-12H,2,13H2,1H3",
        "InChIKey": null,
        "Canonical SMILES": "C=1C=CC(=CC1)P(C=2C=CC=CC2)CCC",
        "Molecular Formula": "C<sub>15</sub>H<sub>17</sub>P",
        "Molecular Mass": "228.27",
        "Boiling Point": "163-165 °C @ Press: 13 Torr"
    }
}