{
    "cas_no": "2315-67-5",
    "key_name": "4-Octylphenol monoethoxylate",
    "cn_name": "辛基酚聚醚-3;辛基酚聚醚-3;",
    "alternate_name": "Ethanol, 2-[4-(1,1,3,3-tetramethylbutyl)phenoxy]-;Ethanol, 2-[<em>p</em>-(1,1,3,3-tetramethylbutyl)phenoxy]-;2-[4-(1,1,3,3-Tetramethylbutyl)phenoxy]ethanol;2-(4-<em>tert</em>-Octylphenoxy)ethanol;NSC 5259;<em>p</em>-<em>tert</em>-Octylphenyl (2-hydroxyethyl) ether;4-Octylphenol monoethoxylate;Ethylene glycol <em>p</em>-octylphenyl ether;2-(<em>p</em>-Octylphenoxy)ethanol;2-[4-(2,4,4-Trimethylpentan-2-yl)phenoxy]ethanol;2-[4-(2,4,4-Trimethylpentan-2-yl)phenoxy]ethan-1-ol",
    "duplicated_cas_no": "1322-96-9",
    "SMILES": "C(CC(C)(C)C)(C)(C)C1=CC=C(OCCO)C=C1",
    "meta_data": {
        "InChI": "InChI=1S/C16H26O2/c1-15(2,3)12-16(4,5)13-6-8-14(9-7-13)18-11-10-17/h6-9,17H,10-12H2,1-5H3",
        "InChIKey": null,
        "Canonical SMILES": "OCCOC1=CC=C(C=C1)C(C)(C)CC(C)(C)C",
        "Molecular Formula": "C<sub>16</sub>H<sub>26</sub>O<sub>2</sub>",
        "Molecular Mass": "250.38",
        "Boiling Point": "192-193 °C @ Press: 2.4 kPa",
        "Density": "0.980-0.990 g/cm³ @ Temp: 25 °C"
    }
}