{
    "cas_no": "3391-86-4",
    "key_name": "1-Octen-3-ol",
    "cn_name": "1-辛烯-3-醇;蘑菇醇;1-烯-3-辛醇;",
    "alternate_name": "1-Octen-3-ol;Amyl vinyl carbinol;Vinyl amyl carbinol;3-Hydroxy-1-octene;<em>n</em>-Oct-1-en-3-ol;1-Vinylhexanol;Pentylvinylcarbinol;(±)-1-Octen-3-ol;<em>dl</em>-1-Octen-3-ol;NSC 87563;Primaverol;Morrilol;Moguchun;Morillol;Omega",
    "duplicated_cas_no": "50999-79-6",
    "SMILES": "C(CCCCC)(C=C)O",
    "meta_data": {
        "InChI": "InChI=1S/C8H16O/c1-3-5-6-7-8(9)4-2/h4,8-9H,2-3,5-7H2,1H3",
        "InChIKey": null,
        "Canonical SMILES": "OC(C=C)CCCCC",
        "Molecular Formula": "C<sub>8</sub>H<sub>16</sub>O",
        "Molecular Mass": "128.21",
        "Boiling Point": "55.0-55.5 °C @ Press: 5 Torr",
        "Density": "0.8324 g/cm³ @ Temp: 25 °C"
    }
}