{
    "cas_no": "1795-01-3",
    "key_name": "3-Ethylthiophene",
    "cn_name": "3-乙基噻吩;",
    "alternate_name": "Thiophene, 3-ethyl-;3-Ethylthiophene",
    "duplicated_cas_no": "",
    "SMILES": "C(C)C=1C=CSC1",
    "meta_data": {
        "InChI": "InChI=1S/C6H8S/c1-2-6-3-4-7-5-6/h3-5H,2H2,1H3",
        "InChIKey": null,
        "Canonical SMILES": "S1C=CC(=C1)CC",
        "Molecular Formula": "C<sub>6</sub>H<sub>8</sub>S",
        "Molecular Mass": "112.19",
        "Boiling Point": "136 °C",
        "Melting Point": "-89.1 °C"
    }
}