{
    "cas_no": "3024-72-4",
    "key_name": "3,4-Dichlorobenzoyl chloride",
    "cn_name": "3,4-二氯苯甲酰氯;",
    "alternate_name": "Benzoyl chloride, 3,4-dichloro-;3,4-Dichlorobenzoyl chloride",
    "duplicated_cas_no": "",
    "SMILES": "C(Cl)(=O)C1=CC(Cl)=C(Cl)C=C1",
    "meta_data": {
        "InChI": "InChI=1S/C7H3Cl3O/c8-5-2-1-4(7(10)11)3-6(5)9/h1-3H",
        "InChIKey": null,
        "Canonical SMILES": "O=C(Cl)C1=CC=C(Cl)C(Cl)=C1",
        "Molecular Formula": "C<sub>7</sub>H<sub>3</sub>Cl<sub>3</sub>O",
        "Molecular Mass": "209.46",
        "Boiling Point": "242 °C",
        "Melting Point": "25 °C"
    }
}