{
    "cas_no": "7772-98-7",
    "key_name": "Sodium thiosulfate",
    "cn_name": "硫代硫酸钠;大苏打;海波;",
    "alternate_name": "Thiosulfuric acid (H<sub>2</sub>S<sub>2</sub>O<sub>3</sub>), sodium salt (1:2);Thiosulfuric acid, disodium salt;Thiosulfuric acid (H<sub>2</sub>S<sub>2</sub>O<sub>3</sub>), disodium salt;Disodium thiosulfate;Hypo;Sodium thiosulfate;Sodium thiosulfate anhydrous;Sodium thiosulfate (Na<sub>2</sub>(S<sub>2</sub>O<sub>3</sub>));Sodium oxide sulfide (Na<sub>2</sub>S<sub>2</sub>O<sub>3</sub>);Sodium thiosulphate;S-Hydril;Sodium hyposulfite;Sodothiol;Declor-It;Chlorine Control;Chlorine Cure;Disodium thiosulphate;Desilube 88;Sulfactol;Ametox;Antichlor;Sulfothiorine;MFS 50",
    "duplicated_cas_no": "13773-27-8;220945-47-1;1374442-73-5;2554533-79-6;2585669-88-9",
    "SMILES": "S(=O)(=O)(O)S.[Na]",
    "meta_data": {
        "InChI": "InChI=1S/2Na.H2O3S2/c;;1-5(2,3)4/h;;(H2,1,2,3,4)",
        "InChIKey": null,
        "Canonical SMILES": "[Na].O=S(=O)(O)S",
        "Molecular Formula": "H<sub>2</sub>O<sub>3</sub>S<sub>2</sub>.2Na",
        "Molecular Mass": "",
        "Melting Point": "48 °C",
        "Density": "1.667 g/cm³"
    }
}