{
    "cas_no": "206361-99-1",
    "key_name": "Darunavir",
    "cn_name": "地瑞那韦;地瑞纳韦;地瑞拉韦;",
    "alternate_name": "Carbamic acid, <em>N</em>-[(1<em>S</em>,2<em>R</em>)-3-[[(4-aminophenyl)sulfonyl](2-methylpropyl)amino]-2-hydroxy-1-(phenylmethyl)propyl]-, (3<em>R</em>,3a<em>S</em>,6a<em>R</em>)-hexahydrofuro[2,3-<em>b</em>]furan-3-yl ester;Carbamic acid, [3-[[(4-aminophenyl)sulfonyl](2-methylpropyl)amino]-2-hydroxy-1-(phenylmethyl)propyl]-, hexahydrofuro[2,3-<em>b</em>]furan-3-yl ester, [3<em>R</em>-[3α(1<em>S</em>*,2<em>R</em>*),3aβ,6aβ]]-;Carbamic acid, [(1<em>S</em>,2<em>R</em>)-3-[[(4-aminophenyl)sulfonyl](2-methylpropyl)amino]-2-hydroxy-1-(phenylmethyl)propyl]-, (3<em>R</em>,3a<em>S</em>,6a<em>R</em>)-hexahydrofuro[2,3-<em>b</em>]furan-3-yl ester;(3<em>R</em>,3a<em>S</em>,6a<em>R</em>)-Hexahydrofuro[2,3-<em>b</em>]furan-3-yl <em>N</em>-[(1<em>S</em>,2<em>R</em>)-3-[[(4-aminophenyl)sulfonyl](2-methylpropyl)amino]-2-hydroxy-1-(phenylmethyl)propyl]carbamate;Darunavir;TMC 114;UIC 94017;TMC 114 (inhibitor);Prezista;TMC 41629;(-)-Darunavir",
    "duplicated_cas_no": "618109-00-5;1097732-88-1",
    "SMILES": "O(C(N[C@H]([C@@H](CN(S(=O)(=O)C1=CC=C(N)C=C1)CC(C)C)O)CC2=CC=CC=C2)=O)[C@@H]3[C@]4([C@@](OC3)(OCC4)[H])[H]",
    "meta_data": {
        "InChI": "InChI=1S/C27H37N3O7S/c1-18(2)15-30(38(33,34)21-10-8-20(28)9-11-21)16-24(31)23(14-19-6-4-3-5-7-19)29-27(32)37-25-17-36-26-22(25)12-13-35-26/h3-11,18,22-26,31H,12-17,28H2,1-2H3,(H,29,32)/t22-,23-,24+,25-,26+/m0/s1",
        "InChIKey": null,
        "Canonical SMILES": "O=C(OC1COC2OCCC21)NC(CC=3C=CC=CC3)C(O)CN(CC(C)C)S(=O)(=O)C4=CC=C(N)C=C4",
        "Molecular Formula": "C<sub>27</sub>H<sub>37</sub>N<sub>3</sub>O<sub>7</sub>S",
        "Molecular Mass": "547.66",
        "Melting Point": "74 °C"
    }
}