{
    "cas_no": "72-54-8",
    "key_name": "p,p′-DDD",
    "cn_name": "滴滴滴;涕滴伊;1,1\"-(2,2-二氯亚乙基)双(4-氯苯);2,2-双(对氯苯基)-1,1-二氯乙烷;",
    "alternate_name": "Benzene, 1,1′-(2,2-dichloroethylidene)bis[4-chloro-;Ethane, 1,1-dichloro-2,2-bis(<em>p</em>-chlorophenyl)-;1,1′-(2,2-Dichloroethylidene)bis[4-chlorobenzene];ME 1700;1,1-Bis(<em>p</em>-chlorophenyl)-2,2-dichloroethane;1,1-Bis(4-chlorophenyl)-2,2-dichloroethane;DDD;1,1-Dichloro-2,2-bis(<em>p</em>-chlorophenyl)ethane;Dichlorodiphenyldichloroethane;<em>p</em>,<em>p</em>′-Dichlorodiphenyldichloroethane;Dilene;Rhothane;TDE;2,2-Bis(<em>p</em>-chlorophenyl)-1,1-dichloroethane;<em>p</em>,<em>p</em>′-TDE;1,1-Dichloro-2,2-bis(4-chlorophenyl)ethane;p,p′-DDD;<em>p</em>,<em>p</em>′-Dichlorodiphenylethylene dichloride;4,4′-DDD;2,2-Bis(4-chlorophenyl)-1,1-dichloroethane;4,4′-TDE;4,4′-Dichlorodiphenyldichloroethane;NSC 8941;2,2-Di(<em>p</em>-chlorophenyl)-1,1-dichloroethane;4,4′-1,1-Dichloro-2,2-bis(<em>p</em>-chlorophenyl)ethane",
    "duplicated_cas_no": "",
    "SMILES": "C(C(Cl)Cl)(C1=CC=C(Cl)C=C1)C2=CC=C(Cl)C=C2",
    "meta_data": {
        "InChI": "InChI=1S/C14H10Cl4/c15-11-5-1-9(2-6-11)13(14(17)18)10-3-7-12(16)8-4-10/h1-8,13-14H",
        "InChIKey": null,
        "Canonical SMILES": "ClC1=CC=C(C=C1)C(C2=CC=C(Cl)C=C2)C(Cl)Cl",
        "Molecular Formula": "C<sub>14</sub>H<sub>10</sub>Cl<sub>4</sub>",
        "Molecular Mass": "320.04",
        "Boiling Point": "193 °C @ Press: 1 Torr",
        "Melting Point": "109-110 °C",
        "Density": "1.385 g/cm³"
    }
}