{
    "cas_no": "5367-28-2",
    "key_name": "4-Chloro-2-methyl-1-nitrobenzene",
    "cn_name": "5-氯-2-硝基甲苯;2-硝基-5-氯甲苯;",
    "alternate_name": "Benzene, 4-chloro-2-methyl-1-nitro-;Toluene, 5-chloro-2-nitro-;4-Chloro-2-methyl-1-nitrobenzene;5-Chloro-2-nitrotoluene;2-Nitro-5-chlorotoluene;3-Chloro-6-nitrotoluene;3-Methyl-4-nitrochlorobenzene;1-Chloro-3-methyl-4-nitrobenzene;4-Chloro-2-methylnitrobenzene",
    "duplicated_cas_no": "",
    "SMILES": "N(=O)(=O)C1=C(C)C=C(Cl)C=C1",
    "meta_data": {
        "InChI": "InChI=1S/C7H6ClNO2/c1-5-4-6(8)2-3-7(5)9(10)11/h2-4H,1H3",
        "InChIKey": null,
        "Canonical SMILES": "O=N(=O)C1=CC=C(Cl)C=C1C",
        "Molecular Formula": "C<sub>7</sub>H<sub>6</sub>ClNO<sub>2</sub>",
        "Molecular Mass": "171.58",
        "Melting Point": "25.5 °C"
    }
}