{
    "cas_no": "924-50-5",
    "key_name": "Methyl 3-methyl-2-butenoate",
    "cn_name": "3,3-二甲基丙烯酸甲酯;",
    "alternate_name": "2-Butenoic acid, 3-methyl-, methyl ester;Crotonic acid, 3-methyl-, methyl ester;Senecioic acid, methyl ester;Methyl 3-methylcrotonate;Methyl 3-methyl-2-butenoate;Methyl 3,3-dimethylacrylate;Methyl 3,3-dimethacrylate;Methyl senecioate;Methyl β-methylcrotonate;3-Methylcrotonic acid methyl ester;Methyl dimethylacrylate;Methyl β,β-dimethylacrylate;3-Methyl-2-butenoic acid methyl ester",
    "duplicated_cas_no": "",
    "SMILES": "C(C=C(C)C)(OC)=O",
    "meta_data": {
        "InChI": "InChI=1S/C6H10O2/c1-5(2)4-6(7)8-3/h4H,1-3H3",
        "InChIKey": null,
        "Canonical SMILES": "O=C(OC)C=C(C)C",
        "Molecular Formula": "C<sub>6</sub>H<sub>10</sub>O<sub>2</sub>",
        "Molecular Mass": "114.14",
        "Boiling Point": "136.5 °C",
        "Density": "0.9094 g/cm³ @ Temp: 20 °C"
    }
}