{
    "cas_no": "20333-39-5",
    "key_name": "Ethyl methyl disulfide",
    "cn_name": "乙基甲基二硫醚;",
    "alternate_name": "Disulfide, ethyl methyl;Ethanesulfenothioic acid, methyl ester;Ethyl methyl disulfide;Methyl ethyl disulfide;2,3-Dithiapentane",
    "duplicated_cas_no": "",
    "SMILES": "S(CC)SC",
    "meta_data": {
        "InChI": "InChI=1S/C3H8S2/c1-3-5-4-2/h3H2,1-2H3",
        "InChIKey": null,
        "Canonical SMILES": "S(SCC)C",
        "Molecular Formula": "C<sub>3</sub>H<sub>8</sub>S<sub>2</sub>",
        "Molecular Mass": "108.23",
        "Boiling Point": "66.6 °C",
        "Melting Point": "-105.91 °C",
        "Density": "0.8369 g/cm³ @ Temp: 25 °C"
    }
}