{
    "cas_no": "57834-33-0",
    "key_name": "<em>N</em>′-(4-Ethoxycarbonylphenyl)-<em>N</em>-methyl-<em>N</em>-phenylformamidine",
    "cn_name": "N-(乙氧基羰基苯基)-N\"-甲基-N\"-苯基甲脒;紫外线吸收剂UV-1;",
    "alternate_name": "Benzoic acid, 4-[[(methylphenylamino)methylene]amino]-, ethyl ester;<em>N</em>′-(4-Ethoxycarbonylphenyl)-<em>N</em>-methyl-<em>N</em>-phenylformamidine;UV 1;UV 1 (Chinese UV absorber);Zikasorb R;Chisorb 971;Honghai 901",
    "duplicated_cas_no": "1888294-48-1",
    "SMILES": "C(OCC)(=O)C1=CC=C(N=CN(C)C2=CC=CC=C2)C=C1",
    "meta_data": {
        "InChI": "InChI=1S/C17H18N2O2/c1-3-21-17(20)14-9-11-15(12-10-14)18-13-19(2)16-7-5-4-6-8-16/h4-13H,3H2,1-2H3",
        "InChIKey": null,
        "Canonical SMILES": "O=C(OCC)C1=CC=C(N=CN(C=2C=CC=CC2)C)C=C1",
        "Molecular Formula": "C<sub>17</sub>H<sub>18</sub>N<sub>2</sub>O<sub>2</sub>",
        "Molecular Mass": "282.34",
        "Boiling Point": "188 °C @ Press: 0.1 Torr"
    }
}