{
    "cas_no": "12056-07-4",
    "key_name": "Indium selenide (In<sub>2</sub>Se<sub>3</sub>)",
    "cn_name": "铟硒化物;",
    "alternate_name": "Indium selenide (In<sub>2</sub>Se<sub>3</sub>);Indium sesquiselenide;Diindium triselenide;Indium selenide;Selanylidene-selanylideneindiganylselanylindigane",
    "duplicated_cas_no": "1263144-66-6",
    "SMILES": "[Se].[In]",
    "meta_data": {
        "InChI": "InChI=1S/In.Se",
        "InChIKey": null,
        "Canonical SMILES": "[Se].[In]",
        "Molecular Formula": "In.Se",
        "Molecular Mass": "",
        "Melting Point": "&gt;900 °C",
        "Density": "5.0 g/cm³"
    }
}