{
    "uri": "substance/pt/12056074",
    "rn": "12056-07-4",
    "name": "Indium selenide (In<sub>2</sub>Se<sub>3</sub>)",
    "images": [],
    "inchi": "InChI=1S/In.Se",
    "inchiKey": "InChIKey=NMHFBDQVKIZULJ-UHFFFAOYSA-N",
    "smile": "[Se].[In]",
    "canonicalSmile": "[Se].[In]",
    "molecularFormula": "In.Se",
    "molecularMass": "",
    "experimentalProperties": [
        {
            "name": "Melting Point",
            "property": "&gt;900 °C",
            "sourceNumber": 1
        },
        {
            "name": "Density",
            "property": "5.0 g/cm³",
            "sourceNumber": 2
        }
    ],
    "propertyCitations": [
        {
            "docUri": "document/pt/document/11683899",
            "sourceNumber": 1,
            "source": "Medvedeva, Z. S.; Izvestiya Akademii Nauk SSSR, Neorganicheskie Materialy, (1965), 1(12), 2128-33, CAplus"
        },
        {
            "docUri": "document/pt/document/27852654",
            "sourceNumber": 2,
            "source": "Kohary, K.; Physical Review B: Condensed Matter and Materials Physics, (2005), 71(18), 184203/1-184203/7, CAplus"
        }
    ],
    "synonyms": [
        "Indium selenide (In<sub>2</sub>Se<sub>3</sub>)",
        "Indium sesquiselenide",
        "Diindium triselenide",
        "Indium selenide",
        "Selanylidene-selanylideneindiganylselanylindigane"
    ],
    "replacedRns": [
        "1263144-66-6"
    ],
    "hasMolfile": true,
    "source": "https://commonchemistry.cas.org/detail?cas_rn=12056-07-4"
}