{
    "cas_no": "968-81-0",
    "key_name": "Acetohexamide",
    "cn_name": "醋磺环已脲;醋磺环己脲;1[(对乙酰苯)磺酰]-3-环己脲;",
    "alternate_name": "Benzenesulfonamide, 4-acetyl-<em>N</em>-[(cyclohexylamino)carbonyl]-;Urea, 1-[(<em>p</em>-acetylphenyl)sulfonyl]-3-cyclohexyl-;4-Acetyl-<em>N</em>-[(cyclohexylamino)carbonyl]benzenesulfonamide;Acetohexamide;1-(<em>p</em>-Acetylbenzenesulfonyl)-3-cyclohexylurea;<em>N</em>-(<em>p</em>-Acetylphenylsulfonyl)-<em>N</em>′-cyclohexylurea;1-[(<em>p</em>-Acetylphenyl)sulfonyl]-3-cyclohexylurea;Dymelor;Dimelor;Acetohexamid;Ordimel;Dimelin;Dimelin (antidiabetic);U 14812;Gamadiabet;Hypoglicil;Metaglucina;Minoral;Tsiklamid;1-(4-Acetylphenyl)sulfonyl-3-cyclohexylurea;MeSH ID: D000092",
    "duplicated_cas_no": "8054-32-8",
    "SMILES": "S(NC(NC1CCCCC1)=O)(=O)(=O)C2=CC=C(C(C)=O)C=C2",
    "meta_data": {
        "InChI": "InChI=1S/C15H20N2O4S/c1-11(18)12-7-9-14(10-8-12)22(20,21)17-15(19)16-13-5-3-2-4-6-13/h7-10,13H,2-6H2,1H3,(H2,16,17,19)",
        "InChIKey": null,
        "Canonical SMILES": "O=C(NC1CCCCC1)NS(=O)(=O)C2=CC=C(C=C2)C(=O)C",
        "Molecular Formula": "C<sub>15</sub>H<sub>20</sub>N<sub>2</sub>O<sub>4</sub>S",
        "Molecular Mass": "324.40",
        "Melting Point": "188-190 °C"
    }
}