{
    "cas_no": "4553-62-2",
    "key_name": "2-Methylpentanedinitrile",
    "cn_name": "2-甲基戊二腈;1,3-氰基丁烷;",
    "alternate_name": "Pentanedinitrile, 2-methyl-;Glutaronitrile, 2-methyl-;2-Methylpentanedinitrile;α-Methylglutarodinitrile;2,4-Dicyanobutane;1,3-Dicyanobutane;2-Methylglutaronitrile;α-Methylglutaronitrile;Diacrylonitrile;Dytek MGN",
    "duplicated_cas_no": "",
    "SMILES": "C(CCC#N)(C#N)C",
    "meta_data": {
        "InChI": "InChI=1S/C6H8N2/c1-6(5-8)3-2-4-7/h6H,2-3H2,1H3",
        "InChIKey": null,
        "Canonical SMILES": "N#CCCC(C#N)C",
        "Molecular Formula": "C<sub>6</sub>H<sub>8</sub>N<sub>2</sub>",
        "Molecular Mass": "108.14",
        "Boiling Point": "263 °C",
        "Melting Point": "-45 °C",
        "Density": "0.9548 g/cm³ @ Temp: 20 °C"
    }
}