{
    "cas_no": "3054-95-3",
    "key_name": "3,3-Diethoxy-1-propene",
    "cn_name": "丙烯醛缩二乙醇;3,3-二乙氧基丙烯;丙烯醛二乙缩醛;",
    "alternate_name": "1-Propene, 3,3-diethoxy-;Acrolein, diethyl acetal;Propene, 3,3-diethoxy-;3,3-Diethoxy-1-propene;1,1-Diethoxy-2-propene;Propenal diethyl acetal;Acrylaldehyde diethyl acetal;3,3-Diethoxypropene;Acrylylaldehyde diethyl acetal;NSC 60135",
    "duplicated_cas_no": "",
    "SMILES": "C(OCC)(OCC)C=C",
    "meta_data": {
        "InChI": "InChI=1S/C7H14O2/c1-4-7(8-5-2)9-6-3/h4,7H,1,5-6H2,2-3H3",
        "InChIKey": null,
        "Canonical SMILES": "O(CC)C(OCC)C=C",
        "Molecular Formula": "C<sub>7</sub>H<sub>14</sub>O<sub>2</sub>",
        "Molecular Mass": "130.18",
        "Boiling Point": "123.5 °C",
        "Melting Point": "120-124 °C"
    }
}