{
    "cas_no": "482-39-3",
    "key_name": "Afzelin",
    "cn_name": "阿福豆苷;阿福豆苷;",
    "alternate_name": "4<em>H</em>-1-Benzopyran-4-one, 3-[(6-deoxy-α-<span class=\"text-smallcaps\">L</span>-mannopyranosyl)oxy]-5,7-dihydroxy-2-(4-hydroxyphenyl)-;Afzelin;3-[(6-Deoxy-α-<span class=\"text-smallcaps\">L</span>-mannopyranosyl)oxy]-5,7-dihydroxy-2-(4-hydroxyphenyl)-4<em>H</em>-1-benzopyran-4-one;Kaempferol 3-rhamnoside;Kaempferol 3-<span class=\"text-smallcaps\">L</span>-rhamnoside;Afzeloside;Kaempferol 3-<em>O</em>-rhamnoside;Kaempferol 3-<em>O</em>-α-<span class=\"text-smallcaps\">L</span>-rhamnopyranoside;Kaempferol 3-α-<span class=\"text-smallcaps\">L</span>-rhamnopyranoside;Kaempferol 3-<em>O</em>-α-<span class=\"text-smallcaps\">L</span>-rhamnoside;Kaempferin;Kaempherol 3-<em>O</em>-α-<span class=\"text-smallcaps\">L</span>-rhamnopyranoside;Kaempferol rhamnoside;Kaempferol 3-(6-deoxy-<span class=\"text-smallcaps\">L</span>-mannopyranoside);Kaempherol 3-<em>O</em>-α-rhamnoside;3-<em>O</em>-α-<span class=\"text-smallcaps\">L</span>-Rhamnopyranosylkaempferol;Kaempferol 3-<em>O</em>-rhamnopyranoside;Kaempferol-3-α-<span class=\"text-smallcaps\">L</span>-rhamnose;Luteolin-3-<em>O</em>-α-<span class=\"text-smallcaps\">L</span>-rhamnopyranoside",
    "duplicated_cas_no": "1400-10-8;6801-84-9;11044-16-9;27214-54-6;30106-72-0;786711-07-7;152519-66-9",
    "SMILES": "O(C1=C(OC=2C(C1=O)=C(O)C=C(O)C2)C3=CC=C(O)C=C3)[C@H]4[C@H](O)[C@H](O)[C@@H](O)[C@H](C)O4",
    "meta_data": {
        "InChI": "InChI=1S/C21H20O10/c1-8-15(25)17(27)18(28)21(29-8)31-20-16(26)14-12(24)6-11(23)7-13(14)30-19(20)9-2-4-10(22)5-3-9/h2-8,15,17-18,21-25,27-28H,1H3/t8-,15-,17+,18+,21-/m0/s1",
        "InChIKey": null,
        "Canonical SMILES": "O=C1C(OC2OC(C)C(O)C(O)C2O)=C(OC=3C=C(O)C=C(O)C13)C=4C=CC(O)=CC4",
        "Molecular Formula": "C<sub>21</sub>H<sub>20</sub>O<sub>10</sub>",
        "Molecular Mass": "432.38",
        "Melting Point": "172-174 °C (decomp)"
    }
}