{
    "cas_no": "2164-08-1",
    "key_name": "Lenacil",
    "cn_name": "环草定;3-环己基-6,7-二氢-1H-戊环并嘧啶-2,4-二酮;",
    "alternate_name": "1<em>H</em>-Cyclopentapyrimidine-2,4(3<em>H</em>,5<em>H</em>)-dione, 3-cyclohexyl-6,7-dihydro-;3-Cyclohexyl-6,7-dihydro-1<em>H</em>-cyclopentapyrimidine-2,4(3<em>H</em>,5<em>H</em>)-dione;3-Cyclohexyl-5,6-trimethyleneuracil;Du Pont 634;Experimental Herbicide 634;Herbicide 634;Lenacil;Uracil 634;Venzar;Hexilure;Elbatan;Adol;Adol 80WP;5-Cyclohexyl-5,7-diaza-2,3,4,5,6,7-hexahydroindene-4,6-dione;Adol (pesticide);Lenacil 80WP;Buracyl;Hexylure;3-Cyclohexyl-6,7-dihydro-1<em>H</em>-cyclopenta[<em>d</em>]pyrimidine-2,4(3<em>H</em>,5<em>H</em>)-dione;3-Cyclohexyl-2-hydroxy-3,5,6,7-tetrahydro-cyclopentapyrimidin-4-one",
    "duplicated_cas_no": "50642-91-6;66113-95-9;91867-45-7",
    "SMILES": "O=C1N(C(=O)NC2=C1CCC2)C3CCCCC3",
    "meta_data": {
        "InChI": "InChI=1S/C13H18N2O2/c16-12-10-7-4-8-11(10)14-13(17)15(12)9-5-2-1-3-6-9/h9H,1-8H2,(H,14,17)",
        "InChIKey": null,
        "Canonical SMILES": "O=C1NC2=C(C(=O)N1C3CCCCC3)CCC2",
        "Molecular Formula": "C<sub>13</sub>H<sub>18</sub>N<sub>2</sub>O<sub>2</sub>",
        "Molecular Mass": "234.29",
        "Melting Point": "316 °C"
    }
}