{
    "cas_no": "75-10-5",
    "key_name": "Difluoromethane",
    "cn_name": "二氟甲烷;",
    "alternate_name": "Methane, difluoro-;Difluoromethane;Freon 32;Genetron 32;Methylene difluoride;R 32 (refrigerant);FC 32;HFC 32;R 32;Ecolo Ace 32;F 32;HFA 32;Forane 32;HFO 32;Freon R 32",
    "duplicated_cas_no": "",
    "SMILES": "C(F)F",
    "meta_data": {
        "InChI": "InChI=1S/CH2F2/c2-1-3/h1H2",
        "InChIKey": null,
        "Canonical SMILES": "FCF",
        "Molecular Formula": "CH<sub>2</sub>F<sub>2</sub>",
        "Molecular Mass": "52.02",
        "Boiling Point": "-51.6 °C",
        "Melting Point": "-136 °C",
        "Density": "0.5265 g/cm³"
    }
}