{
    "cas_no": "851386-45-3",
    "key_name": "3,6-Difluoro-2-pyridinecarboxylic acid",
    "cn_name": null,
    "alternate_name": "2-Pyridinecarboxylic acid, 3,6-difluoro-;3,6-Difluoro-2-pyridinecarboxylic acid;3,6-Difluoropyridine-2-carboxylic acid",
    "duplicated_cas_no": "",
    "SMILES": "C(O)(=O)C1=C(F)C=CC(F)=N1",
    "meta_data": {
        "InChI": "InChI=1S/C6H3F2NO2/c7-3-1-2-4(8)9-5(3)6(10)11/h1-2H,(H,10,11)",
        "InChIKey": null,
        "Canonical SMILES": "O=C(O)C1=NC(F)=CC=C1F",
        "Molecular Formula": "C<sub>6</sub>H<sub>3</sub>F<sub>2</sub>NO<sub>2</sub>",
        "Molecular Mass": "159.09",
        "Melting Point": "139-141 °C"
    }
}