{
    "cas_no": "621-62-5",
    "key_name": "2-Chloro-1,1-diethoxyethane",
    "cn_name": "氯乙醛缩二乙醇;2-氯-1,1-二乙氧基乙烷;",
    "alternate_name": "Ethane, 2-chloro-1,1-diethoxy-;Acetaldehyde, chloro-, diethyl acetal;2-Chloro-1,1-diethoxyethane;Monochloroacetaldehyde diethyl acetal;Diethoxyethyl chloride;2-Chloroacetaldehyde diethyl acetal;1-Chloro-2,2-diethoxyethane;Chloroacetaldehyde diethyl acetal;Chloroethanal diethyl acetal;NSC 8436",
    "duplicated_cas_no": "",
    "SMILES": "C(OCC)(OCC)CCl",
    "meta_data": {
        "InChI": "InChI=1S/C6H13ClO2/c1-3-8-6(5-7)9-4-2/h6H,3-5H2,1-2H3",
        "InChIKey": null,
        "Canonical SMILES": "ClCC(OCC)OCC",
        "Molecular Formula": "C<sub>6</sub>H<sub>13</sub>ClO<sub>2</sub>",
        "Molecular Mass": "152.62",
        "Boiling Point": "157.4 °C",
        "Density": "1.0172 g/cm³ @ Temp: 20 °C"
    }
}