{
    "cas_no": "29823-18-5",
    "key_name": "Heptanoic acid, 7-bromo-, ethyl ester",
    "cn_name": "7-溴庚酸乙酯;",
    "alternate_name": "Heptanoic acid, 7-bromo-, ethyl ester;Ethyl 7-bromoheptanoate;7-Bromoheptanoic acid ethyl ester",
    "duplicated_cas_no": "",
    "SMILES": "C(CCCCCCBr)(OCC)=O",
    "meta_data": {
        "InChI": "InChI=1S/C9H17BrO2/c1-2-12-9(11)7-5-3-4-6-8-10/h2-8H2,1H3",
        "InChIKey": null,
        "Canonical SMILES": "O=C(OCC)CCCCCCBr",
        "Molecular Formula": "C<sub>9</sub>H<sub>17</sub>BrO<sub>2</sub>",
        "Molecular Mass": "237.13",
        "Boiling Point": "112 °C @ Press: 5 Torr"
    }
}