{
    "cas_no": "573-58-0",
    "key_name": "Congo red",
    "cn_name": "直接红28;直接大红;刚果红;3,3\"-[[1,1\"-联苯]-4,4\"-基双(偶氮)]双(4-氨基萘-1-磺酸)二钠;",
    "alternate_name": "1-Naphthalenesulfonic acid, 3,3′-[[1,1′-biphenyl]-4,4′-diylbis(2,1-diazenediyl)]bis[4-amino-, sodium salt (1:2);C.I. Direct Red 28, disodium salt;1-Naphthalenesulfonic acid, 3,3′-[[1,1′-biphenyl]-4,4′-diylbis(azo)]bis[4-amino-, disodium salt;C.I. 22120;Atlantic Congo Red;Atul Congo Red;Azocard Red Congo;Benzo Congo Red;Brasilamina Congo 4B;Congo Red L;Congo Red N;Congo Red 4B;Congo Red CR;Congo Red H;Congo Red R;Congo Red RS;Congo Red M;Congo Red W;Congo Red 4BX;Cotton Red L;Cotton Red 4BC;Diacotton Congo Red;Direct Red C;Direct Red K;Direct Red 28;Direct Red DC-CF;Erie Congo 4B;Cotton Red 5B;Hispamin Congo 4B;Kayaku Congo Red;Mitsui Congo Red;Peeramine Congo Red;Sugai Congo Red;Tertrodirect Red C;Trisulfon Congo Red;Vondacel Red CL;Congo red;C.I. Direct Red 28;Congo Red sodium salt;Congo Red WS;Haemomedical;Haemonorm;Hemorrhagyl;Solucongo;Red K (dye);Congo Red K;Direct Congo Red;Congo Red TS;Direct Red R;Congo red disodium salt;Direct Scarlet 4B;Congo Red 4BS;Congo Red;MeSH ID: D003224",
    "duplicated_cas_no": "550-08-3;70248-72-5;87440-95-7;1000818-40-5",
    "SMILES": "S(=O)(=O)(O)C=1C2=C(C(N)=C(N=NC3=CC=C(C=C3)C4=CC=C(N=NC5=C(N)C6=C(C(S(=O)(=O)O)=C5)C=CC=C6)C=C4)C1)C=CC=C2.[Na]",
    "meta_data": {
        "InChI": "InChI=1S/C32H24N6O6S2.2Na/c33-31-25-7-3-1-5-23(25)29(45(39,40)41)17-27(31)37-35-21-13-9-19(10-14-21)20-11-15-22(16-12-20)36-38-28-18-30(46(42,43)44)24-6-2-4-8-26(24)32(28)34;;/h1-18H,33-34H2,(H,39,40,41)(H,42,43,44);;",
        "InChIKey": null,
        "Canonical SMILES": "[Na].O=S(=O)(O)C1=CC(N=NC=2C=CC(=CC2)C3=CC=C(N=NC=4C=C(C=5C=CC=CC5C4N)S(=O)(=O)O)C=C3)=C(N)C=6C=CC=CC61",
        "Molecular Formula": "C<sub>32</sub>H<sub>24</sub>N<sub>6</sub>O<sub>6</sub>S<sub>2</sub>.2Na",
        "Molecular Mass": "",
        "Melting Point": "&gt;360 °C"
    }
}