{
    "cas_no": "10496-15-8",
    "key_name": "Dihexyl disulfide",
    "cn_name": "二己二硫化物;二己硫;",
    "alternate_name": "Disulfide, dihexyl;Hexyl disulfide;Dihexyl disulfide;Di-<em>n</em>-hexyl disulfide;<em>n</em>-Hexyl disulfide;NSC 677454;1-(Hexyldisulfanyl)hexane",
    "duplicated_cas_no": "",
    "SMILES": "S(SCCCCCC)CCCCCC",
    "meta_data": {
        "InChI": "InChI=1S/C12H26S2/c1-3-5-7-9-11-13-14-12-10-8-6-4-2/h3-12H2,1-2H3",
        "InChIKey": null,
        "Canonical SMILES": "S(SCCCCCC)CCCCCC",
        "Molecular Formula": "C<sub>12</sub>H<sub>26</sub>S<sub>2</sub>",
        "Molecular Mass": "234.46",
        "Boiling Point": "135 °C",
        "Melting Point": "71-73 °C",
        "Density": "0.9145 g/cm³ @ Temp: 25 °C"
    }
}