{
    "cas_no": "113617-63-3",
    "key_name": "Orbifloxacin",
    "cn_name": "奥比沙星;1-环丙基-5,6,8-三氟-7-(顺式-3,5-二甲基哌嗪)-1,4-二氢-4-氧代喹啉-3-羧酸;",
    "alternate_name": "3-Quinolinecarboxylic acid, 1-cyclopropyl-7-[(3<em>R</em>,5<em>S</em>)-3,5-dimethyl-1-piperazinyl]-5,6,8-trifluoro-1,4-dihydro-4-oxo-, <em>rel</em>-;3-Quinolinecarboxylic acid, 1-cyclopropyl-7-(3,5-dimethyl-1-piperazinyl)-5,6,8-trifluoro-1,4-dihydro-4-oxo-, <em>cis</em>-;<em>rel</em>-1-Cyclopropyl-7-[(3<em>R</em>,5<em>S</em>)-3,5-dimethyl-1-piperazinyl]-5,6,8-trifluoro-1,4-dihydro-4-oxo-3-quinolinecarboxylic acid;Orbifloxacin;CP 104354;Orbax",
    "duplicated_cas_no": "",
    "SMILES": "FC1=C2C(C(=O)C(C(O)=O)=CN2C3CC3)=C(F)C(F)=C1N4C[C@H](C)N[C@H](C)C4",
    "meta_data": {
        "InChI": "InChI=1/C19H20F3N3O3/c1-8-5-24(6-9(2)23-8)17-14(21)13(20)12-16(15(17)22)25(10-3-4-10)7-11(18(12)26)19(27)28/h7-10,23H,3-6H2,1-2H3,(H,27,28)/t8-,9+",
        "InChIKey": null,
        "Canonical SMILES": "O=C(O)C1=CN(C2=C(F)C(=C(F)C(F)=C2C1=O)N3CC(NC(C)C3)C)C4CC4",
        "Molecular Formula": "C<sub>19</sub>H<sub>20</sub>F<sub>3</sub>N<sub>3</sub>O<sub>3</sub>",
        "Molecular Mass": "395.38",
        "Melting Point": "257-258 °C (decomp)"
    }
}