{
    "cas_no": "706-03-6",
    "key_name": "3-[(Phenylmethyl)amino]propanenitrile",
    "cn_name": "3-(苯甲基氨基)丙腈;3-(苄氨基)丙腈;3-(苯甲基氨基)丙腈;3-(苯甲基氨基)丙腈, 97+%;",
    "alternate_name": "Propanenitrile, 3-[(phenylmethyl)amino]-;Propionitrile, 3-(benzylamino)-;3-[(Phenylmethyl)amino]propanenitrile;3-(Benzylamino)propionitrile;<em>N</em>-Benzyl-2-cyanoethylamine;β-(Benzylamino)propionitrile;<em>N</em>-(2-Cyanoethyl)benzylamine;(2-Cyanoethyl)(phenylmethyl)amine;Benzyl(2-cyanoethyl)amine;3-(Benzylamino)propanenitrile",
    "duplicated_cas_no": "",
    "SMILES": "C(NCCC#N)C1=CC=CC=C1",
    "meta_data": {
        "InChI": "InChI=1S/C10H12N2/c11-7-4-8-12-9-10-5-2-1-3-6-10/h1-3,5-6,12H,4,8-9H2",
        "InChIKey": null,
        "Canonical SMILES": "N#CCCNCC=1C=CC=CC1",
        "Molecular Formula": "C<sub>10</sub>H<sub>12</sub>N<sub>2</sub>",
        "Molecular Mass": "160.22",
        "Boiling Point": "184-185 °C @ Press: 23 Torr",
        "Melting Point": "70 °C",
        "Density": "1.0265 g/cm³ @ Temp: 20 °C"
    }
}