{
    "cas_no": "626-36-8",
    "key_name": "Ethyl <em>N</em>-(aminocarbonyl)carbamate",
    "cn_name": "脲基甲酸乙酯;乙基脲基甲酸酯;氨基甲酰氨基甲酸乙酯;阿洛酚酸乙酯;脲甲酸乙酯;",
    "alternate_name": "Carbamic acid, <em>N</em>-(aminocarbonyl)-, ethyl ester;Allophanic acid, ethyl ester;Carbamic acid, (aminocarbonyl)-, ethyl ester;Ethyl <em>N</em>-(aminocarbonyl)carbamate;Ethyl allophanate;NSC 119864;NSC 272;Ethyl carbamoylcarbamate",
    "duplicated_cas_no": "",
    "SMILES": "N(C(OCC)=O)C(N)=O",
    "meta_data": {
        "InChI": "InChI=1S/C4H8N2O3/c1-2-9-4(8)6-3(5)7/h2H2,1H3,(H3,5,6,7,8)",
        "InChIKey": null,
        "Canonical SMILES": "O=C(OCC)NC(=O)N",
        "Molecular Formula": "C<sub>4</sub>H<sub>8</sub>N<sub>2</sub>O<sub>3</sub>",
        "Molecular Mass": "132.12",
        "Melting Point": "196.5 °C"
    }
}