{
    "cas_no": "2549-99-7",
    "key_name": "Benzyltriethoxysilane",
    "cn_name": "苄基三乙氧基硅烷;",
    "alternate_name": "Benzene, [(triethoxysilyl)methyl]-;Silane, benzyltriethoxy-;Silane, triethoxy(phenylmethyl)-;[(Triethoxysilyl)methyl]benzene;Benzyltriethoxysilane",
    "duplicated_cas_no": "",
    "SMILES": "[Si](CC1=CC=CC=C1)(OCC)(OCC)OCC",
    "meta_data": {
        "InChI": "InChI=1S/C13H22O3Si/c1-4-14-17(15-5-2,16-6-3)12-13-10-8-7-9-11-13/h7-11H,4-6,12H2,1-3H3",
        "InChIKey": null,
        "Canonical SMILES": "O(CC)[Si](OCC)(OCC)CC=1C=CC=CC1",
        "Molecular Formula": "C<sub>13</sub>H<sub>22</sub>O<sub>3</sub>Si",
        "Molecular Mass": "254.40",
        "Boiling Point": "148 °C @ Press: 26 Torr",
        "Density": "0.986 g/cm³"
    }
}