{
    "cas_no": "64224-21-1",
    "key_name": "Oltipraz",
    "cn_name": null,
    "alternate_name": "3<em>H</em>-1,2-Dithiole-3-thione, 4-methyl-5-(2-pyrazinyl)-;3<em>H</em>-1,2-Dithiole-3-thione, 4-methyl-5-pyrazinyl-;4-Methyl-5-(2-pyrazinyl)-3<em>H</em>-1,2-dithiole-3-thione;RP 35972;Oltipraz;NSC 347901;4-Methyl-5-pyrazinyl-3<em>H</em>-1,2-dithiole-3-thione",
    "duplicated_cas_no": "",
    "SMILES": "CC1=C(SSC1=S)C=2C=NC=CN2",
    "meta_data": {
        "InChI": "InChI=1S/C8H6N2S3/c1-5-7(12-13-8(5)11)6-4-9-2-3-10-6/h2-4H,1H3",
        "InChIKey": null,
        "Canonical SMILES": "S=C1SSC(C=2N=CC=NC2)=C1C",
        "Molecular Formula": "C<sub>8</sub>H<sub>6</sub>N<sub>2</sub>S<sub>3</sub>",
        "Molecular Mass": "226.34",
        "Melting Point": "165 °C"
    }
}