{
    "cas_no": "17715-69-4",
    "key_name": "1-Bromo-2,4-dimethoxybenzene",
    "cn_name": "2,4-二甲氧基溴苯;",
    "alternate_name": "Benzene, 1-bromo-2,4-dimethoxy-;1-Bromo-2,4-dimethoxybenzene;4-Bromoresorcinol dimethyl ether;2,4-Dimethoxyphenyl bromide;4-Bromo-1,3-dimethoxybenzene;2,4-Dimethoxybromobenzene;1,3-Dimethoxy-4-bromobenzene;4-Bromo-3-methoxyanisole;2,4-Dimethoxy-1-bromobenzene",
    "duplicated_cas_no": "",
    "SMILES": "O(C)C1=CC(OC)=CC=C1Br",
    "meta_data": {
        "InChI": "InChI=1S/C8H9BrO2/c1-10-6-3-4-7(9)8(5-6)11-2/h3-5H,1-2H3",
        "InChIKey": null,
        "Canonical SMILES": "BrC1=CC=C(OC)C=C1OC",
        "Molecular Formula": "C<sub>8</sub>H<sub>9</sub>BrO<sub>2</sub>",
        "Molecular Mass": "217.06",
        "Boiling Point": "158-159 °C @ Press: 30 Torr",
        "Melting Point": "24-26 °C"
    }
}