{
    "cas_no": "118409-57-7",
    "key_name": "Tyrphostin 23",
    "cn_name": "酪氨酸磷酸化抑制剂23;(3,4-二羟基苄基)丙二腈;",
    "alternate_name": "Propanedinitrile, 2-[(3,4-dihydroxyphenyl)methylene]-;Propanedinitrile, [(3,4-dihydroxyphenyl)methylene]-;2-[(3,4-Dihydroxyphenyl)methylene]propanedinitrile;RG 50810;RG 50858;AG 18;AG 18 (pharmaceutical);TX 825;Tyrphostin 23;Tyrphostin AG 18;Tyrphostin A 23;2-(3,4-Dihydroxybenzylidene)malononitrile;(3,4-Dihydroxybenzylidene)malononitrile;2-[(3,4-Dihydroxyphenyl)methylidene]propanedinitrile",
    "duplicated_cas_no": "155070-88-5;163063-13-6",
    "SMILES": "C(=C(C#N)C#N)C1=CC(O)=C(O)C=C1",
    "meta_data": {
        "InChI": "InChI=1S/C10H6N2O2/c11-5-8(6-12)3-7-1-2-9(13)10(14)4-7/h1-4,13-14H",
        "InChIKey": null,
        "Canonical SMILES": "N#CC(C#N)=CC1=CC=C(O)C(O)=C1",
        "Molecular Formula": "C<sub>10</sub>H<sub>6</sub>N<sub>2</sub>O<sub>2</sub>",
        "Molecular Mass": "186.17",
        "Melting Point": "225 °C"
    }
}