{
    "cas_no": "1779-51-7",
    "key_name": "Butyltriphenylphosphonium bromide",
    "cn_name": "丁基三苯基溴化膦;",
    "alternate_name": "Phosphonium, butyltriphenyl-, bromide (1:1);Phosphonium, butyltriphenyl-, bromide;Butyltriphenylphosphonium bromide;Triphenylbutylphosphonium bromide;<em>n</em>-Butyltriphenylphosphonium bromide;Butyl bromide triphenylphosphine salt;NSC 59684;BTPPBr;Hishicolin BTPPBr;B 0970",
    "duplicated_cas_no": "1091621-45-2;2197129-37-4",
    "SMILES": "[P+](CCCC)(C1=CC=CC=C1)(C2=CC=CC=C2)C3=CC=CC=C3.[Br-]",
    "meta_data": {
        "InChI": "InChI=1S/C22H24P.BrH/c1-2-3-19-23(20-13-7-4-8-14-20,21-15-9-5-10-16-21)22-17-11-6-12-18-22;/h4-18H,2-3,19H2,1H3;1H/q+1;/p-1",
        "InChIKey": null,
        "Canonical SMILES": "[Br-].C=1C=CC(=CC1)[P+](C=2C=CC=CC2)(C=3C=CC=CC3)CCCC",
        "Molecular Formula": "C<sub>22</sub>H<sub>24</sub>P.Br",
        "Molecular Mass": "",
        "Melting Point": "235 °C"
    }
}