{
    "cas_no": "27825-21-4",
    "key_name": "2-Pyrazinecarboxylic acid, 3-chloro-, methyl ester",
    "cn_name": null,
    "alternate_name": "2-Pyrazinecarboxylic acid, 3-chloro-, methyl ester;Pyrazinecarboxylic acid, 3-chloro-, methyl ester;Pyrazinoic acid, 3-chloro-, methyl ester;Methyl 3-chloropyrazine-2-carboxylate;3-Chloro-2-pyrazinecarboxylic acid methyl ester",
    "duplicated_cas_no": "",
    "SMILES": "C(OC)(=O)C=1C(Cl)=NC=CN1",
    "meta_data": {
        "InChI": "InChI=1S/C6H5ClN2O2/c1-11-6(10)4-5(7)9-3-2-8-4/h2-3H,1H3",
        "InChIKey": null,
        "Canonical SMILES": "O=C(OC)C1=NC=CN=C1Cl",
        "Molecular Formula": "C<sub>6</sub>H<sub>5</sub>ClN<sub>2</sub>O<sub>2</sub>",
        "Molecular Mass": "172.57",
        "Melting Point": "31-32 °C"
    }
}