{
    "cas_no": "100491-29-0",
    "key_name": "Ethyl 7-chloro-1-(2,4-difluorophenyl)-6-fluoro-1,4-dihydro-4-oxo-1,8-naphthyridine-3-carboxylate",
    "cn_name": "甲酸乙酯1-(2,4-二氟苯基)-7-氯-6-氟-4-氧代羟基吡啶[2,3-B]吡啶-3-羧酸;",
    "alternate_name": "1,8-Naphthyridine-3-carboxylic acid, 7-chloro-1-(2,4-difluorophenyl)-6-fluoro-1,4-dihydro-4-oxo-, ethyl ester;Ethyl 7-chloro-1-(2,4-difluorophenyl)-6-fluoro-1,4-dihydro-4-oxo-1,8-naphthyridine-3-carboxylate;7-Chloro-1-(2,4-difluorophenyl)-6-fluoro-1,4-dihydro-4-oxo-1,8-naphthyridine-3-carboxylic acid ethyl ester;7-Chloro-6-fluoro-1-(2,4-difluorophenyl)-1,4-dihydro-4-oxo-1,8-naphthyridine-3-carboxylic acid ethyl ester;7-Chloro-1-(2,4-difluorophenyl)-6-fluoro-4-oxo-1,4-dihydro-[1,8]naphthyridine-3-carboxylic acid ethyl ester;Ethyl 1-(2,4-difluorophenyl)-7-chloro-6-fluoro-1,4-dihydro-4-oxo-1,8-naphthyridine-3-carboxylate;Ethyl 7-chloro-1-(2,4-difluorophenyl)-6-fluoro-4-oxo-1,4-dihydro-1,8-naphthyridine-3-carboxylate",
    "duplicated_cas_no": "",
    "SMILES": "FC1=C(N2C=3C(C(=O)C(C(OCC)=O)=C2)=CC(F)=C(Cl)N3)C=CC(F)=C1",
    "meta_data": {
        "InChI": "InChI=1S/C17H10ClF3N2O3/c1-2-26-17(25)10-7-23(13-4-3-8(19)5-11(13)20)16-9(14(10)24)6-12(21)15(18)22-16/h3-7H,2H2,1H3",
        "InChIKey": null,
        "Canonical SMILES": "O=C(OCC)C1=CN(C2=NC(Cl)=C(F)C=C2C1=O)C3=CC=C(F)C=C3F",
        "Molecular Formula": "C<sub>17</sub>H<sub>10</sub>ClF<sub>3</sub>N<sub>2</sub>O<sub>3</sub>",
        "Molecular Mass": "382.72",
        "Melting Point": "219-221 °C"
    }
}