{
    "cas_no": "13421-13-1",
    "key_name": "4-Chloro-2-iodobenzoic acid",
    "cn_name": "4-氯-2-碘苯甲酸;",
    "alternate_name": "Benzoic acid, 4-chloro-2-iodo-;4-Chloro-2-iodobenzoic acid;2-Iodo-4-chlorobenzoic acid",
    "duplicated_cas_no": "",
    "SMILES": "C(O)(=O)C1=C(I)C=C(Cl)C=C1",
    "meta_data": {
        "InChI": "InChI=1S/C7H4ClIO2/c8-4-1-2-5(7(10)11)6(9)3-4/h1-3H,(H,10,11)",
        "InChIKey": null,
        "Canonical SMILES": "O=C(O)C1=CC=C(Cl)C=C1I",
        "Molecular Formula": "C<sub>7</sub>H<sub>4</sub>ClIO<sub>2</sub>",
        "Molecular Mass": "282.46",
        "Melting Point": "161-163 °C"
    }
}