{
    "cas_no": "4720-86-9",
    "key_name": "4,5,6,7-Tetrahydro-1<em>H</em>-isoindole-1,3(2<em>H</em>)-dione",
    "cn_name": "3,4,5,6-四氢邻苯二甲酰亚胺;",
    "alternate_name": "1<em>H</em>-Isoindole-1,3(2<em>H</em>)-dione, 4,5,6,7-tetrahydro-;1-Cyclohexene-1,2-dicarboximide;4,5,6,7-Tetrahydro-1<em>H</em>-isoindole-1,3(2<em>H</em>)-dione;3,4,5,6-Tetrahydrophthalimide;Tetrahydrophthalimide;NSC 293561",
    "duplicated_cas_no": "",
    "SMILES": "O=C1C2=C(C(=O)N1)CCCC2",
    "meta_data": {
        "InChI": "InChI=1S/C8H9NO2/c10-7-5-3-1-2-4-6(5)8(11)9-7/h1-4H2,(H,9,10,11)",
        "InChIKey": null,
        "Canonical SMILES": "O=C1NC(=O)C2=C1CCCC2",
        "Molecular Formula": "C<sub>8</sub>H<sub>9</sub>NO<sub>2</sub>",
        "Molecular Mass": "151.16",
        "Melting Point": "170-175 °C (sublm)"
    }
}