{
    "cas_no": "1821-47-2",
    "key_name": "5-Methyltryptamine",
    "cn_name": "5-甲基色胺盐酸盐;5-甲基色胺盐酸盐;",
    "alternate_name": "1<em>H</em>-Indole-3-ethanamine, 5-methyl-;Indole, 3-(2-aminoethyl)-5-methyl-;5-Methyl-1<em>H</em>-indole-3-ethanamine;5-Methyltryptamine;NSC 90805;2-(5-Methyl-indol-3-yl)ethyl amine;2-(5-Methyl-1<em>H</em>-indol-3-yl)ethanamine;2-(5-Methyl-1<em>H</em>-indol-3-yl)ethylamine;2-(5-Methyl-1<em>H</em>-indol-3-yl)ethan-1-amine",
    "duplicated_cas_no": "",
    "SMILES": "C(CN)C=1C=2C(NC1)=CC=C(C)C2",
    "meta_data": {
        "InChI": "InChI=1S/C11H14N2/c1-8-2-3-11-10(6-8)9(4-5-12)7-13-11/h2-3,6-7,13H,4-5,12H2,1H3",
        "InChIKey": null,
        "Canonical SMILES": "NCCC1=CNC=2C=CC(=CC21)C",
        "Molecular Formula": "C<sub>11</sub>H<sub>14</sub>N<sub>2</sub>",
        "Molecular Mass": "174.24",
        "Melting Point": "95 °C"
    }
}