{
    "cas_no": "7761-88-8",
    "key_name": "Silver nitrate",
    "cn_name": "硝酸银;",
    "alternate_name": "Nitric acid silver(1+) salt (1:1);Silver nitrate;Nitric acid silver(1+) salt;Silver(1+) nitrate (1:1);Silver nitrate (AgNO<sub>3</sub>);Silver(1+) nitrate;Silver mononitrate;Nitric acid silver(I) salt;Nitric acid, silver(1+) salt;Silver (I) nitrate;P 2325-03;MFS 10;S 116266;SilverClear DG 300;MeSH ID: D012835",
    "duplicated_cas_no": "8012-12-2;31890-20-7",
    "SMILES": "N(=O)(=O)O.[Ag]",
    "meta_data": {
        "InChI": "InChI=1S/Ag.HNO3/c;2-1(3)4/h;(H,2,3,4)",
        "InChIKey": null,
        "Canonical SMILES": "[Ag].O=N(=O)O",
        "Molecular Formula": "Ag.HNO<sub>3</sub>",
        "Molecular Mass": "",
        "Melting Point": "212 °C",
        "Density": "5.35 g/cm³"
    }
}