{
    "cas_no": "21668-77-9",
    "key_name": "1,3-Propanedisulfonic acid",
    "cn_name": "伊罗地塞;1,3-丙二磺酸;",
    "alternate_name": "1,3-Propanedisulfonic acid;Eprodisate",
    "duplicated_cas_no": "",
    "SMILES": "C(S(=O)(=O)O)CCS(=O)(=O)O",
    "meta_data": {
        "InChI": "InChI=1S/C3H8O6S2/c4-10(5,6)2-1-3-11(7,8)9/h1-3H2,(H,4,5,6)(H,7,8,9)",
        "InChIKey": null,
        "Canonical SMILES": "O=S(=O)(O)CCCS(=O)(=O)O",
        "Molecular Formula": "C<sub>3</sub>H<sub>8</sub>O<sub>6</sub>S<sub>2</sub>",
        "Molecular Mass": "204.22",
        "Boiling Point": "157 °C @ Press: 1.4 Torr",
        "Melting Point": "120-125 °C"
    }
}