{
    "cas_no": "6493-77-2",
    "key_name": "3-Cyclohexene-1-carboxylic acid, methyl ester",
    "cn_name": "3-环己烷-1-羧酸甲酯;3-环己烷-1-羧酸甲酯;",
    "alternate_name": "3-Cyclohexene-1-carboxylic acid, methyl ester;Methyl 4-cyclohexenecarboxylate;Methyl 3-cyclohexene-1-carboxylate;1-Carbomethoxy-3-cyclohexene;Methyl 3-cyclohexenecarboxylate;Methyl 1,2,3,6-tetrahydrobenzoate;4-(Methoxycarbonyl)cyclohexene;1-(Methoxycarbonyl)cyclohex-3-ene;NSC 93912",
    "duplicated_cas_no": "49543-03-5",
    "SMILES": "C(OC)(=O)C1CCC=CC1",
    "meta_data": {
        "InChI": "InChI=1S/C8H12O2/c1-10-8(9)7-5-3-2-4-6-7/h2-3,7H,4-6H2,1H3",
        "InChIKey": null,
        "Canonical SMILES": "O=C(OC)C1CC=CCC1",
        "Molecular Formula": "C<sub>8</sub>H<sub>12</sub>O<sub>2</sub>",
        "Molecular Mass": "140.18",
        "Boiling Point": "70 °C @ Press: 13 Torr",
        "Density": "1.0130 g/cm³ @ Temp: 20 °C"
    }
}