{
    "cas_no": "759-94-4",
    "key_name": "<em>S</em>-Ethyl dipropylthiocarbamate",
    "cn_name": "茵草敌;茵达灭;N,N-二丙基硫代氨基甲酸-S-乙基酯;",
    "alternate_name": "Carbamothioic acid, <em>N</em>,<em>N</em>-dipropyl-, <em>S</em>-ethyl ester;Carbamic acid, dipropylthio-, <em>S</em>-ethyl ester;Carbamothioic acid, dipropyl-, <em>S</em>-ethyl ester;R 1608;Eptam;<em>S</em>-Ethyl dipropylthiocarbamate;Stauffer R 1608;EPTC (herbicide);FDA 1541;Eptam 6E;Torbin;Niptan;Alirox;EPTC;NSC 40486",
    "duplicated_cas_no": "",
    "SMILES": "N(C(SCC)=O)(CCC)CCC",
    "meta_data": {
        "InChI": "InChI=1S/C9H19NOS/c1-4-7-10(8-5-2)9(11)12-6-3/h4-8H2,1-3H3",
        "InChIKey": null,
        "Canonical SMILES": "O=C(SCC)N(CCC)CCC",
        "Molecular Formula": "C<sub>9</sub>H<sub>19</sub>NOS",
        "Molecular Mass": "189.32",
        "Boiling Point": "232 °C",
        "Melting Point": "&lt;25 °C",
        "Density": "0.955 g/cm³ @ Temp: 30 °C"
    }
}