{
    "cas_no": "126411-39-0",
    "key_name": "<em>P</em>,<em>P</em>,<em>P</em>′,<em>P</em>′-Tetraethyl <em>P</em>,<em>P</em>′-[[3,5-bis(1,1-dimethylethyl)-4-hydroxyphenyl]ethenylidene]bis[phosphonate]",
    "cn_name": null,
    "alternate_name": "Phosphonic acid, <em>P</em>,<em>P</em>′-[[3,5-bis(1,1-dimethylethyl)-4-hydroxyphenyl]ethenylidene]bis-, <em>P</em>,<em>P</em>,<em>P</em>′,<em>P</em>′-tetraethyl ester;Phosphonic acid, [[3,5-bis(1,1-dimethylethyl)-4-hydroxyphenyl]ethenylidene]bis-, tetraethyl ester;<em>P</em>,<em>P</em>,<em>P</em>′,<em>P</em>′-Tetraethyl <em>P</em>,<em>P</em>′-[[3,5-bis(1,1-dimethylethyl)-4-hydroxyphenyl]ethenylidene]bis[phosphonate];SR 12813;GW 485801",
    "duplicated_cas_no": "",
    "SMILES": "P(C(P(OCC)(OCC)=O)=CC1=CC(C(C)(C)C)=C(O)C(C(C)(C)C)=C1)(OCC)(OCC)=O",
    "meta_data": {
        "InChI": "InChI=1S/C24H42O7P2/c1-11-28-32(26,29-12-2)21(33(27,30-13-3)31-14-4)17-18-15-19(23(5,6)7)22(25)20(16-18)24(8,9)10/h15-17,25H,11-14H2,1-10H3",
        "InChIKey": null,
        "Canonical SMILES": "O=P(OCC)(OCC)C(=CC=1C=C(C(O)=C(C1)C(C)(C)C)C(C)(C)C)P(=O)(OCC)OCC",
        "Molecular Formula": "C<sub>24</sub>H<sub>42</sub>O<sub>7</sub>P<sub>2</sub>",
        "Molecular Mass": "504.53",
        "Melting Point": "120-121 °C"
    }
}