{
    "cas_no": "4897-50-1",
    "key_name": "1,4′-Bipiperidine",
    "cn_name": "4-哌啶基哌啶;",
    "alternate_name": "1,4′-Bipiperidine;4-Piperidinopiperidine;4-(1-Piperidinyl)piperidine;[1,4′]Bipiperidinyl;4-(1-Piperidino)piperidine;1-(Piperidin-4-yl)piperidine;1-(4-Piperidyl)piperidine",
    "duplicated_cas_no": "",
    "SMILES": "C1(CCNCC1)N2CCCCC2",
    "meta_data": {
        "InChI": "InChI=1S/C10H20N2/c1-2-8-12(9-3-1)10-4-6-11-7-5-10/h10-11H,1-9H2",
        "InChIKey": null,
        "Canonical SMILES": "N1CCC(N2CCCCC2)CC1",
        "Molecular Formula": "C<sub>10</sub>H<sub>20</sub>N<sub>2</sub>",
        "Molecular Mass": "168.28",
        "Melting Point": "63-66 °C"
    }
}