{
    "cas_no": "608-05-9",
    "key_name": "5-Methylisatin",
    "cn_name": "5-甲基靛红;5-甲基-2,3-吲哚二酮;",
    "alternate_name": "1<em>H</em>-Indole-2,3-dione, 5-methyl-;Indole-2,3-dione, 5-methyl-;Isatin, 5-methyl-;5-Methyl-1<em>H</em>-indole-2,3-dione;5-Methylisatin;5-Methylindole-2,3-dione;5-Methyl-2,3-indolinedione;NSC 9398;5-Methyl-2,3-dihydro-2,3-dioxoindole",
    "duplicated_cas_no": "1456796-43-2",
    "SMILES": "O=C1C=2C(NC1=O)=CC=C(C)C2",
    "meta_data": {
        "InChI": "InChI=1S/C9H7NO2/c1-5-2-3-7-6(4-5)8(11)9(12)10-7/h2-4H,1H3,(H,10,11,12)",
        "InChIKey": null,
        "Canonical SMILES": "O=C1NC2=CC=C(C=C2C1=O)C",
        "Molecular Formula": "C<sub>9</sub>H<sub>7</sub>NO<sub>2</sub>",
        "Molecular Mass": "161.16",
        "Melting Point": "195-200 °C (decomp)"
    }
}