{
    "cas_no": "2720-73-2",
    "key_name": "Potassium amylxanthate",
    "cn_name": null,
    "alternate_name": "Carbonodithioic acid, <em>O</em>-pentyl ester, potassium salt (1:1);Carbonic acid, dithio-, <em>O</em>-pentyl ester, potassium salt;Carbonodithioic acid, <em>O</em>-pentyl ester, potassium salt;Xanthic acid, pentyl-, potassium salt;Potassium <em>n</em>-amylxanthogenate;Potassium amylxanthate;Potassium pentyl xanthate;Potassium amylxanthogenate;Potassium pentyl xanthogenate;Aeroxanthate 350;Amyl potassium xanthate;Z 6;Z 6 (flotation agent);Cyanamic A 350",
    "duplicated_cas_no": "41256-18-2;67712-65-6",
    "SMILES": "C(OC(=S)S)CCCC.[K]",
    "meta_data": {
        "InChI": "InChI=1S/C6H12OS2.K/c1-2-3-4-5-7-6(8)9;/h2-5H2,1H3,(H,8,9);",
        "InChIKey": null,
        "Canonical SMILES": "[K].S=C(S)OCCCCC",
        "Molecular Formula": "C<sub>6</sub>H<sub>12</sub>OS<sub>2</sub>.K",
        "Molecular Mass": "",
        "Melting Point": "235-237 °C"
    }
}