{
    "cas_no": "77317-55-6",
    "key_name": "Methyl 2-amino-5-iodobenzoate",
    "cn_name": "2-氨基-5-碘苯甲酸甲酯;",
    "alternate_name": "Benzoic acid, 2-amino-5-iodo-, methyl ester;Anthranilic acid, 5-iodo-, methyl ester;Methyl 2-amino-5-iodobenzoate;Methyl 5-iodoanthranilate;5-Iodoanthranilic acid methyl ester;2-Amino-5-iodobenzoic acid methyl ester",
    "duplicated_cas_no": "",
    "SMILES": "C(OC)(=O)C1=C(N)C=CC(I)=C1",
    "meta_data": {
        "InChI": "InChI=1S/C8H8INO2/c1-12-8(11)6-4-5(9)2-3-7(6)10/h2-4H,10H2,1H3",
        "InChIKey": null,
        "Canonical SMILES": "O=C(OC)C1=CC(I)=CC=C1N",
        "Molecular Formula": "C<sub>8</sub>H<sub>8</sub>INO<sub>2</sub>",
        "Molecular Mass": "277.06",
        "Melting Point": "83-84 °C"
    }
}