{
    "cas_no": "518048-02-7",
    "key_name": "Phenylmethyl <em>N</em>-[1-[4-[[[(4-fluorophenyl)methyl]amino]carbonyl]-1,6-dihydro-5-hydroxy-1-methyl-6-oxo-2-pyrimidinyl]-1-methylethyl]carbamate",
    "cn_name": null,
    "alternate_name": "Carbamic acid, <em>N</em>-[1-[4-[[[(4-fluorophenyl)methyl]amino]carbonyl]-1,6-dihydro-5-hydroxy-1-methyl-6-oxo-2-pyrimidinyl]-1-methylethyl]-, phenylmethyl ester;Carbamic acid, [1-[4-[[[(4-fluorophenyl)methyl]amino]carbonyl]-1,6-dihydro-5-hydroxy-1-methyl-6-oxo-2-pyrimidinyl]-1-methylethyl]-, phenylmethyl ester;Phenylmethyl <em>N</em>-[1-[4-[[[(4-fluorophenyl)methyl]amino]carbonyl]-1,6-dihydro-5-hydroxy-1-methyl-6-oxo-2-pyrimidinyl]-1-methylethyl]carbamate;Benzyl [1-[4-[[(4-fluorobenzyl)amino]carbonyl]-5-hydroxy-1-methyl-6-oxo-1,6-dihydropyrimidin-2-yl]-1-methylethyl]carbamate;[1-[4-(4-Fluorobenzylcarbamoyl)-5-hydroxy-1-methyl-6-oxo-1,6-dihydropyrimidin-2-yl]-1-methylethyl]carbamic acid benzyl ester",
    "duplicated_cas_no": "",
    "SMILES": "C(NC(OCC1=CC=CC=C1)=O)(C)(C)C2=NC(C(NCC3=CC=C(F)C=C3)=O)=C(O)C(=O)N2C",
    "meta_data": {
        "InChI": "InChI=1S/C24H25FN4O5/c1-24(2,28-23(33)34-14-16-7-5-4-6-8-16)22-27-18(19(30)21(32)29(22)3)20(31)26-13-15-9-11-17(25)12-10-15/h4-12,30H,13-14H2,1-3H3,(H,26,31)(H,28,33)",
        "InChIKey": null,
        "Canonical SMILES": "O=C(OCC=1C=CC=CC1)NC(C2=NC(C(=O)NCC3=CC=C(F)C=C3)=C(O)C(=O)N2C)(C)C",
        "Molecular Formula": "C<sub>24</sub>H<sub>25</sub>FN<sub>4</sub>O<sub>5</sub>",
        "Molecular Mass": "468.48",
        "Melting Point": "182.0-182.8 °C"
    }
}