{
    "cas_no": "987-24-6",
    "key_name": "Betamethasone acetate",
    "cn_name": "醋酸倍他米松;16beta-甲基-11beta,17alpha,21-三羟基-9alpha-氟-孕甾-1,4-二烯-3,20-二酮-21-醋酸酯;",
    "alternate_name": "Pregna-1,4-diene-3,20-dione, 21-(acetyloxy)-9-fluoro-11,17-dihydroxy-16-methyl-, (11β,16β)-;Pregna-1,4-diene-3,20-dione, 9-fluoro-11β,17,21-trihydroxy-16β-methyl-, 21-acetate;(11β,16β)-21-(Acetyloxy)-9-fluoro-11,17-dihydroxy-16-methylpregna-1,4-diene-3,20-dione;21-Acetoxy-9α-fluoro-11β,17α-dihydroxy-16β-methylpregna-1,4-diene-3,20-dione;Betamethasone acetate;Betamethasone 21-acetate;9-Fluoro-11β,17,21-trihydroxy-16β-methylpregna-1,4-diene-3,20-dione 21-acetate",
    "duplicated_cas_no": "",
    "SMILES": "C[C@@]12[C@]([C@]3([C@@](F)([C@]4(C)C(CC3)=CC(=O)C=C4)[C@@H](O)C1)[H])(C[C@H](C)[C@@]2(C(COC(C)=O)=O)O)[H]",
    "meta_data": {
        "InChI": "InChI=1S/C24H31FO6/c1-13-9-18-17-6-5-15-10-16(27)7-8-21(15,3)23(17,25)19(28)11-22(18,4)24(13,30)20(29)12-31-14(2)26/h7-8,10,13,17-19,28,30H,5-6,9,11-12H2,1-4H3/t13-,17-,18-,19-,21-,22-,23-,24-/m0/s1",
        "InChIKey": null,
        "Canonical SMILES": "O=C1C=CC2(C(=C1)CCC3C4CC(C)C(O)(C(=O)COC(=O)C)C4(C)CC(O)C32F)C",
        "Molecular Formula": "C<sub>24</sub>H<sub>31</sub>FO<sub>6</sub>",
        "Molecular Mass": "434.50",
        "Melting Point": "232 °C"
    }
}