{
    "cas_no": "162537-11-3",
    "key_name": "<em>N</em>-(Methoxycarbonyl)-3-methyl-<span class=\"text-smallcaps\">L</span>-valine",
    "cn_name": "N-甲氧羰基-L-叔亮氨酸;",
    "alternate_name": "<span class=\"text-smallcaps\">L</span>-Valine, <em>N</em>-(methoxycarbonyl)-3-methyl-;<em>N</em>-(Methoxycarbonyl)-3-methyl-<span class=\"text-smallcaps\">L</span>-valine;<em>N</em>-(Methoxycarbonyl)-<span class=\"text-smallcaps\">L</span>-<em>tert</em>-leucine;(<em>S</em>)-2-(Methoxycarbonylamino)-3,3-dimethylbutanoic acid;(2S)-2-[(Methoxycarbonyl)amino]-3,3-dimethylbutanoic acid",
    "duplicated_cas_no": "",
    "SMILES": "[C@H](NC(OC)=O)(C(C)(C)C)C(O)=O",
    "meta_data": {
        "InChI": "InChI=1S/C8H15NO4/c1-8(2,3)5(6(10)11)9-7(12)13-4/h5H,1-4H3,(H,9,12)(H,10,11)/t5-/m1/s1",
        "InChIKey": null,
        "Canonical SMILES": "O=C(OC)NC(C(=O)O)C(C)(C)C",
        "Molecular Formula": "C<sub>8</sub>H<sub>15</sub>NO<sub>4</sub>",
        "Molecular Mass": "189.21",
        "Melting Point": "108-109 °C"
    }
}