{
    "cas_no": "15307-86-5",
    "key_name": "Diclofenac",
    "cn_name": "双氯芬酸;2-[(2,6-二氯苯基)氨基]-苯乙酸;",
    "alternate_name": "Benzeneacetic acid, 2-[(2,6-dichlorophenyl)amino]-;Acetic acid, [<em>o</em>-(2,6-dichloroanilino)phenyl]-;2-[(2,6-Dichlorophenyl)amino]benzeneacetic acid;<em>N</em>-(2,6-Dichlorophenyl)-<em>o</em>-aminophenylacetic acid;[<em>o</em>-(2,6-Dichloroanilino)phenyl]acetic acid;2-(2,6-Dichloroanilino)phenylacetic acid;Diclofenac acid;Dichlofenac;Diclofenac;2-(2,6-Dichlorophenylamino)phenylacetic acid;Pennsaid;Dicloreuma;Transfenac;Diclomelan;Diclofenamic acid;Diclac;Voltaflan;2-[2-(2,6-Dichlorophenylamino)phenyl]acetic acid;Ortofen;DCF 100C;Dicloftil;Voltaren Dolo;Flector EP Tissugel;Flector;Zorvolex;Vetagesic;Zolterol;2-[2-(2,6-Dichloroanilino)phenyl]acetic acid;MeSH ID: D004008",
    "duplicated_cas_no": "76595-40-9;87180-41-4",
    "SMILES": "N(C1=C(CC(O)=O)C=CC=C1)C2=C(Cl)C=CC=C2Cl",
    "meta_data": {
        "InChI": "InChI=1S/C14H11Cl2NO2/c15-10-5-3-6-11(16)14(10)17-12-7-2-1-4-9(12)8-13(18)19/h1-7,17H,8H2,(H,18,19)",
        "InChIKey": null,
        "Canonical SMILES": "O=C(O)CC=1C=CC=CC1NC=2C(Cl)=CC=CC2Cl",
        "Molecular Formula": "C<sub>14</sub>H<sub>11</sub>Cl<sub>2</sub>NO<sub>2</sub>",
        "Molecular Mass": "296.15",
        "Melting Point": "156-158 °C",
        "Density": "1.48 g/cm³"
    }
}