{
    "cas_no": "15862-37-0",
    "key_name": "2,5-Dibromo-3-nitropyridine",
    "cn_name": "2,5-二溴-3-硝基吡啶;",
    "alternate_name": "Pyridine, 2,5-dibromo-3-nitro-;2,5-Dibromo-3-nitropyridine;NSC 170627",
    "duplicated_cas_no": "",
    "SMILES": "N(=O)(=O)C1=C(Br)N=CC(Br)=C1",
    "meta_data": {
        "InChI": "InChI=1S/C5H2Br2N2O2/c6-3-1-4(9(10)11)5(7)8-2-3/h1-2H",
        "InChIKey": null,
        "Canonical SMILES": "O=N(=O)C1=CC(Br)=CN=C1Br",
        "Molecular Formula": "C<sub>5</sub>H<sub>2</sub>Br<sub>2</sub>N<sub>2</sub>O<sub>2</sub>",
        "Molecular Mass": "281.89",
        "Melting Point": "97-98 °C"
    }
}