{
    "cas_no": "13795-24-9",
    "key_name": "Benzyl 4-nitrophenyl carbonate",
    "cn_name": null,
    "alternate_name": "Carbonic acid, 4-nitrophenyl phenylmethyl ester;Carbonic acid, benzyl <em>p</em>-nitrophenyl ester;Benzyl <em>p</em>-nitrophenyl carbonate;4-Nitrophenyl benzyl carbonate;<em>p</em>-Nitrophenyl benzyl carbonate;Benzyl 4-nitrophenyl carbonate;NSC 171047",
    "duplicated_cas_no": "",
    "SMILES": "O(C(OCC1=CC=CC=C1)=O)C2=CC=C(N(=O)=O)C=C2",
    "meta_data": {
        "InChI": "InChI=1S/C14H11NO5/c16-14(19-10-11-4-2-1-3-5-11)20-13-8-6-12(7-9-13)15(17)18/h1-9H,10H2",
        "InChIKey": null,
        "Canonical SMILES": "O=C(OC1=CC=C(C=C1)N(=O)=O)OCC=2C=CC=CC2",
        "Molecular Formula": "C<sub>14</sub>H<sub>11</sub>NO<sub>5</sub>",
        "Molecular Mass": "273.24",
        "Melting Point": "78-79 °C"
    }
}