{
    "cas_no": "154350-29-5",
    "key_name": "Cyclopropanesulfonamide",
    "cn_name": "环丙磺酰胺;",
    "alternate_name": "Cyclopropanesulfonamide;Cyclopropanesulfonic acid amide",
    "duplicated_cas_no": "",
    "SMILES": "S(N)(=O)(=O)C1CC1",
    "meta_data": {
        "InChI": "InChI=1S/C3H7NO2S/c4-7(5,6)3-1-2-3/h3H,1-2H2,(H2,4,5,6)",
        "InChIKey": null,
        "Canonical SMILES": "O=S(=O)(N)C1CC1",
        "Molecular Formula": "C<sub>3</sub>H<sub>7</sub>NO<sub>2</sub>S",
        "Molecular Mass": "121.16",
        "Melting Point": "106-107 °C"
    }
}