{
    "cas_no": "1975-52-6",
    "key_name": "2-Methyl-5-nitrobenzoic acid",
    "cn_name": "2-甲基-5-硝基苯甲酸;",
    "alternate_name": "Benzoic acid, 2-methyl-5-nitro-;<em>o</em>-Toluic acid, 5-nitro-;2-Methyl-5-nitrobenzoic acid;5-Nitro-<em>o</em>-toluic acid;3-Nitro-6-methylbenzoic acid;5-Nitro-2-methylbenzoic acid",
    "duplicated_cas_no": "",
    "SMILES": "C(O)(=O)C1=CC(N(=O)=O)=CC=C1C",
    "meta_data": {
        "InChI": "InChI=1S/C8H7NO4/c1-5-2-3-6(9(12)13)4-7(5)8(10)11/h2-4H,1H3,(H,10,11)",
        "InChIKey": null,
        "Canonical SMILES": "O=C(O)C1=CC(=CC=C1C)N(=O)=O",
        "Molecular Formula": "C<sub>8</sub>H<sub>7</sub>NO<sub>4</sub>",
        "Molecular Mass": "181.15",
        "Melting Point": "179 °C"
    }
}