{
    "cas_no": "24304-50-5",
    "key_name": "<em>N</em>,<em>N</em>′-(2,5-Dimethyl-1,4-phenylene)bis[3-oxobutanamide]",
    "cn_name": "双乙酰乙酰-2,5-二甲基对苯二胺;",
    "alternate_name": "Butanamide, <em>N</em>,<em>N</em>′-(2,5-dimethyl-1,4-phenylene)bis[3-oxo-;Acetoacetamide, <em>N</em>,<em>N</em>′-(2,5-dimethyl-<em>p</em>-phenylene)bis-;<em>N</em>,<em>N</em>′-(2,5-Dimethyl-1,4-phenylene)bis[3-oxobutanamide];2,5-Bis(acetoacetamido)-1,4-xylene;<em>N</em>,<em>N</em>′-(2,5-Dimethyl-1,4-phenylene)bis(acetoacetamide);<em>N</em>,<em>N</em>′-(2,5-Dimethyl-<em>p</em>-phenylene)bis(acetoacetamide);NSC 165884",
    "duplicated_cas_no": "",
    "SMILES": "N(C(CC(C)=O)=O)C1=C(C)C=C(NC(CC(C)=O)=O)C(C)=C1",
    "meta_data": {
        "InChI": "InChI=1S/C16H20N2O4/c1-9-5-14(18-16(22)8-12(4)20)10(2)6-13(9)17-15(21)7-11(3)19/h5-6H,7-8H2,1-4H3,(H,17,21)(H,18,22)",
        "InChIKey": null,
        "Canonical SMILES": "O=C(NC=1C=C(C(=CC1C)NC(=O)CC(=O)C)C)CC(=O)C",
        "Molecular Formula": "C<sub>16</sub>H<sub>20</sub>N<sub>2</sub>O<sub>4</sub>",
        "Molecular Mass": "304.34",
        "Melting Point": "239-241 °C"
    }
}