{
    "cas_no": "63-99-0",
    "key_name": "<em>N</em>-(3-Methylphenyl)urea",
    "cn_name": "间甲苯脲;",
    "alternate_name": "Urea, <em>N</em>-(3-methylphenyl)-;Urea, <em>m</em>-tolyl-;Urea, (3-methylphenyl)-;<em>N</em>-(3-Methylphenyl)urea;<em>m</em>-Tolylcarbamide;<em>m</em>-Tolylurea;3-Methylphenylurea;3-Tolylurea;<em>m</em>-Methylphenylurea;<em>N</em>-<em>m</em>-Tolylurea;NSC 2177",
    "duplicated_cas_no": "",
    "SMILES": "N(C(N)=O)C1=CC(C)=CC=C1",
    "meta_data": {
        "InChI": "InChI=1S/C8H10N2O/c1-6-3-2-4-7(5-6)10-8(9)11/h2-5H,1H3,(H3,9,10,11)",
        "InChIKey": null,
        "Canonical SMILES": "O=C(N)NC1=CC=CC(=C1)C",
        "Molecular Formula": "C<sub>8</sub>H<sub>10</sub>N<sub>2</sub>O",
        "Molecular Mass": "150.18",
        "Melting Point": "143 °C"
    }
}