{
    "cas_no": "76045-71-1",
    "key_name": "3-Amino-5-hydroxybenzoic acid",
    "cn_name": null,
    "alternate_name": "Benzoic acid, 3-amino-5-hydroxy-;3-Amino-5-hydroxybenzoic acid;3-Hydroxy-5-aminobenzoic acid;5-Amino-3-hydroxybenzoic acid",
    "duplicated_cas_no": "",
    "SMILES": "C(O)(=O)C1=CC(N)=CC(O)=C1",
    "meta_data": {
        "InChI": "InChI=1S/C7H7NO3/c8-5-1-4(7(10)11)2-6(9)3-5/h1-3,9H,8H2,(H,10,11)",
        "InChIKey": null,
        "Canonical SMILES": "O=C(O)C=1C=C(O)C=C(N)C1",
        "Molecular Formula": "C<sub>7</sub>H<sub>7</sub>NO<sub>3</sub>",
        "Molecular Mass": "153.14",
        "Melting Point": "242 °C"
    }
}