{
    "cas_no": "872-32-2",
    "key_name": "2-Methyl-1-pyrroline",
    "cn_name": "2-甲基吡咯啉;2-甲基二氢吡咯;",
    "alternate_name": "2<em>H</em>-Pyrrole, 3,4-dihydro-5-methyl-;1-Pyrroline, 2-methyl-;3,4-Dihydro-5-methyl-2<em>H</em>-pyrrole;2-Methyl-1-pyrroline;2-Methyl-Δ<sup>1</sup>-pyrroline;5-Methyl-3,4-dihydro-2<em>H</em>-pyrrole;4,5-Dihydro-2-methyl-3<em>H</em>-pyrrole",
    "duplicated_cas_no": "",
    "SMILES": "CC=1CCCN1",
    "meta_data": {
        "InChI": "InChI=1S/C5H9N/c1-5-3-2-4-6-5/h2-4H2,1H3",
        "InChIKey": null,
        "Canonical SMILES": "N1=C(C)CCC1",
        "Molecular Formula": "C<sub>5</sub>H<sub>9</sub>N",
        "Molecular Mass": "83.13",
        "Boiling Point": "99-101 °C"
    }
}