{
    "cas_no": "514-78-3",
    "key_name": "Canthaxanthin",
    "cn_name": "角黄素;斑蝥黄素;",
    "alternate_name": "β,β-Carotene-4,4′-dione;β-Carotene-4,4′-dione, <em>all</em>-<em>trans</em>-;β-Carotene-4,4′-dione;Carophyll red;<em>all</em>-<em>trans</em>-Canthaxanthin;Canthaxanthin;4,4′-Diketo-β-carotene;Canthaxanthine;4,4′-Dioxo-β-carotene;Roxanthin Red 10;C.I. Food Orange 8;Food Orange 8;E 161g;C.I. 40850;NSC 374110;Lucantin Red;MeSH ID: D016644",
    "duplicated_cas_no": "7548-82-5",
    "SMILES": "C(=C/C(=C/C=C/C(=C/C=C/C=C(/C=C/C=C(/C=C/C=1C(C)(C)CCC(=O)C1C)\\C)\\C)/C)/C)\\C=2C(C)(C)CCC(=O)C2C",
    "meta_data": {
        "InChI": "InChI=1S/C40H52O2/c1-29(17-13-19-31(3)21-23-35-33(5)37(41)25-27-39(35,7)8)15-11-12-16-30(2)18-14-20-32(4)22-24-36-34(6)38(42)26-28-40(36,9)10/h11-24H,25-28H2,1-10H3/b12-11+,17-13+,18-14+,23-21+,24-22+,29-15+,30-16+,31-19+,32-20+",
        "InChIKey": null,
        "Canonical SMILES": "O=C1C(=C(C=CC(=CC=CC(=CC=CC=C(C=CC=C(C=CC2=C(C(=O)CCC2(C)C)C)C)C)C)C)C(C)(C)CC1)C",
        "Molecular Formula": "C<sub>40</sub>H<sub>52</sub>O<sub>2</sub>",
        "Molecular Mass": "564.84",
        "Melting Point": "211-212 °C"
    }
}