{
    "cas_no": "17302-46-4",
    "key_name": "Benzoic acid, 2-hydroxy-5-nitro-, methyl ester",
    "cn_name": "2-羟基-5-硝基苯甲酸甲酯;",
    "alternate_name": "Benzoic acid, 2-hydroxy-5-nitro-, methyl ester;Salicylic acid, 5-nitro-, methyl ester;Methyl 5-nitrosalicylate;Methyl 2-hydroxy-5-nitrobenzoate;Methyl 5-nitro-2-hydroxybenzoate;2-Hydroxy-5-nitrobenzoic acid methyl ester",
    "duplicated_cas_no": "",
    "SMILES": "C(OC)(=O)C1=CC(N(=O)=O)=CC=C1O",
    "meta_data": {
        "InChI": "InChI=1S/C8H7NO5/c1-14-8(11)6-4-5(9(12)13)2-3-7(6)10/h2-4,10H,1H3",
        "InChIKey": null,
        "Canonical SMILES": "O=C(OC)C1=CC(=CC=C1O)N(=O)=O",
        "Molecular Formula": "C<sub>8</sub>H<sub>7</sub>NO<sub>5</sub>",
        "Molecular Mass": "197.14",
        "Melting Point": "119 °C"
    }
}