{
    "cas_no": "79-46-9",
    "key_name": "2-Nitropropane",
    "cn_name": "2-硝基丙烷;",
    "alternate_name": "Propane, 2-nitro-;2-Nitropropane;Isonitropropane;Dimethylnitromethane;NSC 5369;1-Methylnitroethane",
    "duplicated_cas_no": "104306-46-9",
    "SMILES": "C(N(=O)=O)(C)C",
    "meta_data": {
        "InChI": "InChI=1S/C3H7NO2/c1-3(2)4(5)6/h3H,1-2H3",
        "InChIKey": null,
        "Canonical SMILES": "O=N(=O)C(C)C",
        "Molecular Formula": "C<sub>3</sub>H<sub>7</sub>NO<sub>2</sub>",
        "Molecular Mass": "89.09",
        "Boiling Point": "120.3 °C @ Press: 760 Torr",
        "Melting Point": "-93 °C",
        "Density": "0.9821 g/cm³ @ Temp: 25 °C"
    }
}