{
    "cas_no": "6974-77-2",
    "key_name": "1-Bromo-3-chloro-2-methylpropane",
    "cn_name": "1-溴-3-氯-2-甲基丙烷;",
    "alternate_name": "Propane, 1-bromo-3-chloro-2-methyl-;1-Bromo-3-chloro-2-methylpropane;2-Methyl-1-chloro-3-bromopropane;3-Bromo-2-methyl-1-chloropropane;1-Chloro-3-bromo-2-methylpropane;NSC 21695;2-Methyl-1-bromo-3-chloropropane",
    "duplicated_cas_no": "135212-63-4",
    "SMILES": "C(CBr)(CCl)C",
    "meta_data": {
        "InChI": "InChI=1S/C4H8BrCl/c1-4(2-5)3-6/h4H,2-3H2,1H3",
        "InChIKey": null,
        "Canonical SMILES": "ClCC(C)CBr",
        "Molecular Formula": "C<sub>4</sub>H<sub>8</sub>BrCl",
        "Molecular Mass": "171.46",
        "Boiling Point": "155 °C",
        "Density": "1.4845 g/cm³ @ Temp: 20 °C"
    }
}