{
    "cas_no": "94242-51-0",
    "key_name": "Ethyl 1-cyclopropyl-6,7,8-trifluoro-1,4-dihydro-4-oxoquinoline-3-carboxylate",
    "cn_name": null,
    "alternate_name": "3-Quinolinecarboxylic acid, 1-cyclopropyl-6,7,8-trifluoro-1,4-dihydro-4-oxo-, ethyl ester;Ethyl 1-cyclopropyl-6,7,8-trifluoro-1,4-dihydro-4-oxoquinoline-3-carboxylate;1-Cyclopropyl-6,7,8-trifluoro-1,4-dihydro-4-oxo-3-quinolinecarboxylic acid ethyl ester",
    "duplicated_cas_no": "",
    "SMILES": "FC1=C2N(C=C(C(OCC)=O)C(=O)C2=CC(F)=C1F)C3CC3",
    "meta_data": {
        "InChI": "InChI=1S/C15H12F3NO3/c1-2-22-15(21)9-6-19(7-3-4-7)13-8(14(9)20)5-10(16)11(17)12(13)18/h5-7H,2-4H2,1H3",
        "InChIKey": null,
        "Canonical SMILES": "O=C(OCC)C1=CN(C2=C(F)C(F)=C(F)C=C2C1=O)C3CC3",
        "Molecular Formula": "C<sub>15</sub>H<sub>12</sub>F<sub>3</sub>NO<sub>3</sub>",
        "Molecular Mass": "311.26",
        "Melting Point": "167-168 °C"
    }
}