{
    "cas_no": "728-88-1",
    "key_name": "(±)-Tolperisone",
    "cn_name": "托哌酮;脑脉宁;甲苯哌丙酮;甲哌酮;",
    "alternate_name": "1-Propanone, 2-methyl-1-(4-methylphenyl)-3-(1-piperidinyl)-;Propiophenone, 2,4′-dimethyl-3-piperidino-;2-Methyl-1-(4-methylphenyl)-3-(1-piperidinyl)-1-propanone;2,4′-Dimethyl-3-piperidinopropiophenone;Mydeton;Tolperisone;Mideton;(±)-Tolperisone;<em>dl</em>-Tolperisone;Mydetone;NSC 107321;MeSH ID: D014049",
    "duplicated_cas_no": "112537-33-4",
    "SMILES": "C(C(CN1CCCCC1)C)(=O)C2=CC=C(C)C=C2",
    "meta_data": {
        "InChI": "InChI=1S/C16H23NO/c1-13-6-8-15(9-7-13)16(18)14(2)12-17-10-4-3-5-11-17/h6-9,14H,3-5,10-12H2,1-2H3",
        "InChIKey": null,
        "Canonical SMILES": "O=C(C1=CC=C(C=C1)C)C(C)CN2CCCCC2",
        "Molecular Formula": "C<sub>16</sub>H<sub>23</sub>NO",
        "Molecular Mass": "245.36",
        "Melting Point": "176-177 °C"
    }
}