{
    "cas_no": "108-62-3",
    "key_name": "Metaldehyde",
    "cn_name": "四聚乙醛;2,4,6,8-四甲基-1,3,5,7-四氧杂环辛烷;",
    "alternate_name": "1,3,5,7-Tetroxocane, 2,4,6,8-tetramethyl-;Metaldehyde;2,4,6,8-Tetramethyl-1,3,5,7-tetroxocane;Acetaldehyde, tetramer;Slugfest;2,4,6,8-Tetramethyl-1,3,5,7-tetraoxacyclooctane;2,4,6,8-Tetramethyl-1,3,5,7-tetraoxocane",
    "duplicated_cas_no": "",
    "SMILES": "CC1OC(C)OC(C)OC(C)O1",
    "meta_data": {
        "InChI": "InChI=1S/C8H16O4/c1-5-9-6(2)11-8(4)12-7(3)10-5/h5-8H,1-4H3",
        "InChIKey": null,
        "Canonical SMILES": "O1C(OC(OC(OC1C)C)C)C",
        "Molecular Formula": "C<sub>8</sub>H<sub>16</sub>O<sub>4</sub>",
        "Molecular Mass": "176.21",
        "Melting Point": "246 °C"
    }
}