{
    "cas_no": "7549-33-9",
    "key_name": "Anisyl propionate",
    "cn_name": null,
    "alternate_name": "Benzenemethanol, 4-methoxy-, 1-propanoate;Benzyl alcohol, <em>p</em>-methoxy-, propionate;Benzenemethanol, 4-methoxy-, propanoate;Propionic acid, <em>p</em>-methoxybenzyl ester;Anisyl propionate;<em>p</em>-Methoxybenzyl propionate;NSC 46113;4-Methoxybenzyl propanoate",
    "duplicated_cas_no": "",
    "SMILES": "C(OC(CC)=O)C1=CC=C(OC)C=C1",
    "meta_data": {
        "InChI": "InChI=1S/C11H14O3/c1-3-11(12)14-8-9-4-6-10(13-2)7-5-9/h4-7H,3,8H2,1-2H3",
        "InChIKey": null,
        "Canonical SMILES": "O=C(OCC1=CC=C(OC)C=C1)CC",
        "Molecular Formula": "C<sub>11</sub>H<sub>14</sub>O<sub>3</sub>",
        "Molecular Mass": "194.23",
        "Boiling Point": "227 °C"
    }
}