{
    "cas_no": "81074-81-9",
    "key_name": "2-Furanmethanol, 5-[(dimethylamino)methyl]-, hydrochloride (1:1)",
    "cn_name": "5-[(二甲氨基)甲基]-2-呋喃甲醇盐酸盐;5-[(二甲氨基)甲基]糠醇盐酸盐;",
    "alternate_name": "2-Furanmethanol, 5-[(dimethylamino)methyl]-, hydrochloride (1:1);2-Furanmethanol, 5-[(dimethylamino)methyl]-, hydrochloride;5-(Dimethylaminomethyl)-2-furanmethanol hydrochloride;5-(Dimethylaminomethyl)furfuryl alcohol hydrochloride;[5-[(Dimethylamino)methyl]furan-2-yl]methanol hydrochloride",
    "duplicated_cas_no": "",
    "SMILES": "C(N(C)C)C=1OC(CO)=CC1.Cl",
    "meta_data": {
        "InChI": "InChI=1S/C8H13NO2.ClH/c1-9(2)5-7-3-4-8(6-10)11-7;/h3-4,10H,5-6H2,1-2H3;1H",
        "InChIKey": null,
        "Canonical SMILES": "Cl.OCC=1OC(=CC1)CN(C)C",
        "Molecular Formula": "C<sub>8</sub>H<sub>13</sub>NO<sub>2</sub>.ClH",
        "Molecular Mass": "",
        "Melting Point": "120-121 °C"
    }
}