{
    "cas_no": "13760-81-1",
    "key_name": "Lutetium fluoride",
    "cn_name": "氟化镥;",
    "alternate_name": "Lutetium fluoride (LuF<sub>3</sub>);Lutetium trifluoride;Lutetium fluoride",
    "duplicated_cas_no": "",
    "SMILES": "[Lu](F)(F)F",
    "meta_data": {
        "InChI": "InChI=1S/3FH.Lu/h3*1H;/q;;;+3/p-3",
        "InChIKey": null,
        "Canonical SMILES": "F[Lu](F)F",
        "Molecular Formula": "F<sub>3</sub>Lu",
        "Molecular Mass": "",
        "Melting Point": "1184 °C"
    }
}