{
    "cas_no": "6914-79-0",
    "key_name": "1-Cyanocyclopropanecarboxylic acid",
    "cn_name": "1-氰基-1-环丙烷羧酸;1-氰基环丙烷-1-羧酸;",
    "alternate_name": "Cyclopropanecarboxylic acid, 1-cyano-;1-Cyanocyclopropanecarboxylic acid;1-Cyano-1-cyclopropanecarboxylic acid",
    "duplicated_cas_no": "858423-57-1",
    "SMILES": "C(O)(=O)C1(C#N)CC1",
    "meta_data": {
        "InChI": "InChI=1S/C5H5NO2/c6-3-5(1-2-5)4(7)8/h1-2H2,(H,7,8)",
        "InChIKey": null,
        "Canonical SMILES": "N#CC1(C(=O)O)CC1",
        "Molecular Formula": "C<sub>5</sub>H<sub>5</sub>NO<sub>2</sub>",
        "Molecular Mass": "111.10",
        "Melting Point": "135-136 °C"
    }
}