{
    "cas_no": "5472-68-4",
    "key_name": "2,4-Dichlorophenylalanine",
    "cn_name": null,
    "alternate_name": "Phenylalanine, 2,4-dichloro-;<span class=\"text-smallcaps\">DL</span>-Phenylalanine, 2,4-dichloro-;Alanine, 3-(2,4-dichlorophenyl)-, <span class=\"text-smallcaps\">DL</span>-;2,4-Dichlorophenylalanine;2,4-Dichloro-<span class=\"text-smallcaps\">DL</span>-phenylalanine;<span class=\"text-smallcaps\">DL</span>-2,4-Dichlorophenylalanine;NSC 29445;2-Amino-3-(2,4-dichlorophenyl)propanoicacid",
    "duplicated_cas_no": "",
    "SMILES": "C(C(C(O)=O)N)C1=C(Cl)C=C(Cl)C=C1",
    "meta_data": {
        "InChI": "InChI=1S/C9H9Cl2NO2/c10-6-2-1-5(7(11)4-6)3-8(12)9(13)14/h1-2,4,8H,3,12H2,(H,13,14)",
        "InChIKey": null,
        "Canonical SMILES": "O=C(O)C(N)CC1=CC=C(Cl)C=C1Cl",
        "Molecular Formula": "C<sub>9</sub>H<sub>9</sub>Cl<sub>2</sub>NO<sub>2</sub>",
        "Molecular Mass": "234.08",
        "Melting Point": "239-241 °C"
    }
}