{
    "cas_no": "13963-59-2",
    "key_name": "Iron diethyldithiocarbamate",
    "cn_name": "二乙基二硫代氨基甲酸铁盐;",
    "alternate_name": "Iron, tris(<em>N</em>,<em>N</em>-diethylcarbamodithioato-κ<em>S</em>,κ<em>S</em>′)-, (<em>OC</em>-6-11)-;Iron, tris(diethyldithiocarbamato)-;Iron, tris(diethylcarbamodithioato-<em>S</em>,<em>S</em>′)-, (<em>OC</em>-6-11)-;Iron, tris(diethylcarbamodithioato-κ<em>S</em>,κ<em>S</em>′)-, (<em>OC</em>-6-11)-;(<em>OC</em>-6-11)-Tris(<em>N</em>,<em>N</em>-diethylcarbamodithioato-κ<em>S</em>,κ<em>S</em>′)iron;Iron diethyldithiocarbamate;Tris(diethyldithiocarbamato)iron;Iron tris(diethyldithiocarbamate);Iron(III) diethyldithiocarbamate;Tris(<em>N</em>,<em>N</em>-diethyldithiocarbamato)iron;NSC 177698;Rhenogran TTFE 75",
    "duplicated_cas_no": "14977-47-0;15688-47-8",
    "SMILES": "N(CC)(CC)C=1[S-][Fe+3]23([S-]C(N(CC)CC)=[S]2)([S-]C(N(CC)CC)=[S]3)[S]1",
    "meta_data": {
        "InChI": "InChI=1S/3C5H11NS2.Fe/c3*1-3-6(4-2)5(7)8;/h3*3-4H2,1-2H3,(H,7,8);/q;;;+3/p-3",
        "InChIKey": null,
        "Canonical SMILES": "[S]1=C([S-][Fe+3]123([S]=C([S-]2)N(CC)CC)[S]=C([S-]3)N(CC)CC)N(CC)CC",
        "Molecular Formula": "C<sub>15</sub>H<sub>30</sub>FeN<sub>3</sub>S<sub>6</sub>",
        "Molecular Mass": "",
        "Melting Point": "165 °C"
    }
}