{
    "cas_no": "87-01-4",
    "key_name": "DAMC",
    "cn_name": "7-二甲氨基-4-甲基香豆素;",
    "alternate_name": "2<em>H</em>-1-Benzopyran-2-one, 7-(dimethylamino)-4-methyl-;Coumarin, 7-(dimethylamino)-4-methyl-;7-(Dimethylamino)-4-methyl-2<em>H</em>-1-benzopyran-2-one;7-(Dimethylamino)-4-methylcoumarin;4-Methyl-7-(dimethylamino)coumarin;DAMC;Coumarin 311;Calcofluor White LD;7-<em>N</em>,<em>N</em>-Dimethylamino-4-methylcoumarin;Coumarin 461;Fluorescent Brightener 130;C.I. 551101;C.I. Fluorescent Brightener 130;Brighter 63;NSC 408145",
    "duplicated_cas_no": "61902-26-9",
    "SMILES": "CC=1C=2C(=CC(N(C)C)=CC2)OC(=O)C1",
    "meta_data": {
        "InChI": "InChI=1S/C12H13NO2/c1-8-6-12(14)15-11-7-9(13(2)3)4-5-10(8)11/h4-7H,1-3H3",
        "InChIKey": null,
        "Canonical SMILES": "O=C1OC=2C=C(C=CC2C(=C1)C)N(C)C",
        "Molecular Formula": "C<sub>12</sub>H<sub>13</sub>NO<sub>2</sub>",
        "Molecular Mass": "203.24",
        "Melting Point": "143 °C"
    }
}