{
    "cas_no": "34435-05-7",
    "key_name": "C24-Ceramide",
    "cn_name": null,
    "alternate_name": "Tetracosanamide, <em>N</em>-[(1<em>S</em>,2<em>R</em>,3<em>E</em>)-2-hydroxy-1-(hydroxymethyl)-3-heptadecen-1-yl]-;Tetracosanamide, <em>N</em>-[2-hydroxy-1-(hydroxymethyl)-3-heptadecenyl]-, [<em>R</em>-[<em>R</em>*,<em>S</em>*-(<em>E</em>)]]-;Tetracosanamide, <em>N</em>-[2-hydroxy-1-(hydroxymethyl)-3-heptadecenyl]-, (<em>E</em>)-<span class=\"text-smallcaps\">D</span>-<em>erythro</em>-;Tetracosanamide, <em>N</em>-[(1<em>S</em>,2<em>R</em>,3<em>E</em>)-2-hydroxy-1-(hydroxymethyl)-3-heptadecenyl]-;<em>N</em>-[(1<em>S</em>,2<em>R</em>,3<em>E</em>)-2-Hydroxy-1-(hydroxymethyl)-3-heptadecen-1-yl]tetracosanamide;<span class=\"text-smallcaps\">D</span>-<em>erythro</em>-1,3-Dihydroxy-2-tetracosanoylamido-<em>trans</em>-4-octadecene;<em>N</em>-Tetracosanoyl C<sub>18</sub>-sphingosine;<em>N</em>-Lignoceroylsphingosine;Lobophytamide L<sub>5</sub>;C24-Ceramide;Ceramide (d18:1,C24:0);C24:0 Ceramide;Ceramide 24;Ceramide d18:1/24:0;CerNS",
    "duplicated_cas_no": "",
    "SMILES": "[C@@H](NC(CCCCCCCCCCCCCCCCCCCCCCC)=O)([C@@H](/C=C/CCCCCCCCCCCCC)O)CO",
    "meta_data": {
        "InChI": "InChI=1S/C42H83NO3/c1-3-5-7-9-11-13-15-17-18-19-20-21-22-23-24-26-28-30-32-34-36-38-42(46)43-40(39-44)41(45)37-35-33-31-29-27-25-16-14-12-10-8-6-4-2/h35,37,40-41,44-45H,3-34,36,38-39H2,1-2H3,(H,43,46)/b37-35+/t40-,41+/m0/s1",
        "InChIKey": null,
        "Canonical SMILES": "O=C(NC(CO)C(O)C=CCCCCCCCCCCCCC)CCCCCCCCCCCCCCCCCCCCCCC",
        "Molecular Formula": "C<sub>42</sub>H<sub>83</sub>NO<sub>3</sub>",
        "Molecular Mass": "650.11",
        "Melting Point": "93-95 °C"
    }
}