{
    "cas_no": "53475-15-3",
    "key_name": "3-(Methylthio)-2-butanone",
    "cn_name": "3-甲硫基-2-丁酮;3-甲硫-2-丁酮;",
    "alternate_name": "2-Butanone, 3-(methylthio)-;3-(Methylthio)-2-butanone",
    "duplicated_cas_no": "99315-41-0",
    "SMILES": "C(C(C)=O)(SC)C",
    "meta_data": {
        "InChI": "InChI=1S/C5H10OS/c1-4(6)5(2)7-3/h5H,1-3H3",
        "InChIKey": null,
        "Canonical SMILES": "O=C(C)C(SC)C",
        "Molecular Formula": "C<sub>5</sub>H<sub>10</sub>OS",
        "Molecular Mass": "118.20",
        "Boiling Point": "45-47 °C @ Press: 15 Torr"
    }
}