{
    "cas_no": "16323-43-6",
    "key_name": "<em>p</em>-Phenylenediacrylic acid",
    "cn_name": null,
    "alternate_name": "2-Propenoic acid, 3,3′-(1,4-phenylene)bis-;<em>p</em>-Benzenediacrylic acid;3,3′-(1,4-Phenylene)bis[2-propenoic acid];<em>p</em>-Phenylenediacrylic acid;<em>p</em>-Phenylenebis[acrylic acid];1,4-Phenylenediacrylic acid;NSC 133919;1,4-Benzenediacrylic acid",
    "duplicated_cas_no": "",
    "SMILES": "C(=CC(O)=O)C1=CC=C(C=CC(O)=O)C=C1",
    "meta_data": {
        "InChI": "InChI=1S/C12H10O4/c13-11(14)7-5-9-1-2-10(4-3-9)6-8-12(15)16/h1-8H,(H,13,14)(H,15,16)",
        "InChIKey": null,
        "Canonical SMILES": "O=C(O)C=CC1=CC=C(C=CC(=O)O)C=C1",
        "Molecular Formula": "C<sub>12</sub>H<sub>10</sub>O<sub>4</sub>",
        "Molecular Mass": "218.21",
        "Melting Point": "&gt;360 °C (decomp)"
    }
}