{
    "cas_no": "84531-36-2",
    "key_name": "6,7-Dihydro-3-nitro-5<em>H</em>-cyclopenta[<em>b</em>]pyridine",
    "cn_name": null,
    "alternate_name": "5<em>H</em>-Cyclopenta[<em>b</em>]pyridine, 6,7-dihydro-3-nitro-;5<em>H</em>-1-Pyrindine, 6,7-dihydro-3-nitro-;6,7-Dihydro-3-nitro-5<em>H</em>-cyclopenta[<em>b</em>]pyridine;3-Nitro-6,7-dihydro-5<em>H</em>-cyclopenta[<em>b</em>]pyridine;3-Nitro-5<em>H</em>,6<em>H</em>,7<em>H</em>-cyclopenta[<em>b</em>]pyridine",
    "duplicated_cas_no": "",
    "SMILES": "N(=O)(=O)C=1C=C2C(=NC1)CCC2",
    "meta_data": {
        "InChI": "InChI=1S/C8H8N2O2/c11-10(12)7-4-6-2-1-3-8(6)9-5-7/h4-5H,1-3H2",
        "InChIKey": null,
        "Canonical SMILES": "O=N(=O)C1=CN=C2C(=C1)CCC2",
        "Molecular Formula": "C<sub>8</sub>H<sub>8</sub>N<sub>2</sub>O<sub>2</sub>",
        "Molecular Mass": "164.16",
        "Melting Point": "94-95 °C"
    }
}