{
    "cas_no": "115-40-2",
    "key_name": "Bromocresol purple",
    "cn_name": "溴甲酚紫;二溴邻甲酚磺酞;二溴邻甲酚磺酰酞;",
    "alternate_name": "Phenol, 4,4′-(1,1-dioxido-3<em>H</em>-2,1-benzoxathiol-3-ylidene)bis[2-bromo-6-methyl-;<em>o</em>-Cresol, 4,4′-(3<em>H</em>-2,1-benzoxathiol-3-ylidene)bis[6-bromo-, <em>S</em>,<em>S</em>-dioxide;Phenol, 4,4′-(3<em>H</em>-2,1-benzoxathiol-3-ylidene)bis[2-bromo-6-methyl-, <em>S</em>,<em>S</em>-dioxide;Bromocresol purple;<em>o</em>-Toluenesulfonic acid, α,α-bis(5-bromo-4-hydroxy-<em>m</em>-tolyl)-α-hydroxy-, γ-sultone;3<em>H</em>-2,1-Benzoxathiole, phenol deriv.;4,4′-(1,1-Dioxido-3<em>H</em>-2,1-benzoxathiol-3-ylidene)bis[2-bromo-6-methylphenol];Bromcresol purple;NSC 374134",
    "duplicated_cas_no": "99792-85-5;518-50-3;644950-41-4",
    "SMILES": "O=S1(=O)OC(C=2C1=CC=CC2)(C3=CC(Br)=C(O)C(C)=C3)C4=CC(Br)=C(O)C(C)=C4",
    "meta_data": {
        "InChI": "InChI=1S/C21H16Br2O5S/c1-11-7-13(9-16(22)19(11)24)21(14-8-12(2)20(25)17(23)10-14)15-5-3-4-6-18(15)29(26,27)28-21/h3-10,24-25H,1-2H3",
        "InChIKey": null,
        "Canonical SMILES": "O=S1(=O)OC(C2=CC(Br)=C(O)C(=C2)C)(C3=CC(Br)=C(O)C(=C3)C)C=4C=CC=CC41",
        "Molecular Formula": "C<sub>21</sub>H<sub>16</sub>Br<sub>2</sub>O<sub>5</sub>S",
        "Molecular Mass": "540.22",
        "Melting Point": "241.5 °C"
    }
}