{
    "cas_no": "112741-50-1",
    "key_name": "1,1-Dimethylethyl (2<em>S</em>,3<em>R</em>)-6-oxo-2,3-diphenyl-4-morpholinecarboxylate",
    "cn_name": "(2S,3R)-N-叔丁氧羰基-2,3-二苯基吗啉-6-酮;",
    "alternate_name": "4-Morpholinecarboxylic acid, 6-oxo-2,3-diphenyl-, 1,1-dimethylethyl ester, (2<em>S</em>,3<em>R</em>)-;4-Morpholinecarboxylic acid, 6-oxo-2,3-diphenyl-, 1,1-dimethylethyl ester, (2<em>S</em>-<em>cis</em>)-;1,1-Dimethylethyl (2<em>S</em>,3<em>R</em>)-6-oxo-2,3-diphenyl-4-morpholinecarboxylate;(2<em>S</em>,3<em>R</em>)-(+)-<em>N</em>-<em>tert</em>-Butoxycarbonyl-6-oxo-2,3-diphenylmorpholine",
    "duplicated_cas_no": "",
    "SMILES": "C(OC(C)(C)C)(=O)N1[C@@H]([C@@H](OC(=O)C1)C2=CC=CC=C2)C3=CC=CC=C3",
    "meta_data": {
        "InChI": "InChI=1S/C21H23NO4/c1-21(2,3)26-20(24)22-14-17(23)25-19(16-12-8-5-9-13-16)18(22)15-10-6-4-7-11-15/h4-13,18-19H,14H2,1-3H3/t18-,19+/m1/s1",
        "InChIKey": null,
        "Canonical SMILES": "O=C(OC(C)(C)C)N1CC(=O)OC(C=2C=CC=CC2)C1C=3C=CC=CC3",
        "Molecular Formula": "C<sub>21</sub>H<sub>23</sub>NO<sub>4</sub>",
        "Molecular Mass": "353.41",
        "Melting Point": "207 °C"
    }
}