{
    "cas_no": "39856-50-3",
    "key_name": "5-Bromo-2-nitropyridine",
    "cn_name": null,
    "alternate_name": "Pyridine, 5-bromo-2-nitro-;5-Bromo-2-nitropyridine;3-Bromo-6-nitropyridine;2-Nitro-5-bromopyridine",
    "duplicated_cas_no": "",
    "SMILES": "N(=O)(=O)C1=CC=C(Br)C=N1",
    "meta_data": {
        "InChI": "InChI=1S/C5H3BrN2O2/c6-4-1-2-5(7-3-4)8(9)10/h1-3H",
        "InChIKey": null,
        "Canonical SMILES": "O=N(=O)C1=NC=C(Br)C=C1",
        "Molecular Formula": "C<sub>5</sub>H<sub>3</sub>BrN<sub>2</sub>O<sub>2</sub>",
        "Molecular Mass": "202.99",
        "Melting Point": "149.5-150 °C"
    }
}