{
    "cas_no": "22282-70-8",
    "key_name": "2-Fluoro-4-iodopyridine",
    "cn_name": "2-氟-4-碘吡啶;",
    "alternate_name": "Pyridine, 2-fluoro-4-iodo-;2-Fluoro-4-iodopyridine;4-Iodo-2-fluoropyridine",
    "duplicated_cas_no": "",
    "SMILES": "IC=1C=C(F)N=CC1",
    "meta_data": {
        "InChI": "InChI=1S/C5H3FIN/c6-5-3-4(7)1-2-8-5/h1-3H",
        "InChIKey": null,
        "Canonical SMILES": "FC1=NC=CC(I)=C1",
        "Molecular Formula": "C<sub>5</sub>H<sub>3</sub>FIN",
        "Molecular Mass": "222.99",
        "Melting Point": "58 °C"
    }
}