{
    "cas_no": "5581-67-9",
    "key_name": "Methyltris(1-methylethoxy)silane",
    "cn_name": "甲基三异丙氧基硅烷;",
    "alternate_name": "Silane, methyltris(1-methylethoxy)-;Silane, triisopropoxymethyl-;Methyltris(1-methylethoxy)silane;Triisopropoxymethyl silane;Methyltriisopropoxysilane",
    "duplicated_cas_no": "",
    "SMILES": "[Si](OC(C)C)(OC(C)C)(OC(C)C)C",
    "meta_data": {
        "InChI": "InChI=1S/C10H24O3Si/c1-8(2)11-14(7,12-9(3)4)13-10(5)6/h8-10H,1-7H3",
        "InChIKey": null,
        "Canonical SMILES": "O(C(C)C)[Si](OC(C)C)(OC(C)C)C",
        "Molecular Formula": "C<sub>10</sub>H<sub>24</sub>O<sub>3</sub>Si",
        "Molecular Mass": "220.38",
        "Boiling Point": "161-162 °C"
    }
}