{
    "cas_no": "2213-43-6",
    "key_name": "1-Aminopiperidine",
    "cn_name": "1-氨基哌啶; N-氨基哌啶;",
    "alternate_name": "1-Piperidinamine;Piperidine, 1-amino-;<em>N</em>-Aminopiperidine;1-Aminopiperidine;Pentamethylenehydrazine;1-Piperidineamine;1-Piperidylamine;NSC 83225;Piperidin-1-ylamine",
    "duplicated_cas_no": "104712-05-2;1190921-63-1;2131042-98-1",
    "SMILES": "NN1CCCCC1",
    "meta_data": {
        "InChI": "InChI=1S/C5H12N2/c6-7-4-2-1-3-5-7/h1-6H2",
        "InChIKey": null,
        "Canonical SMILES": "NN1CCCCC1",
        "Molecular Formula": "C<sub>5</sub>H<sub>12</sub>N<sub>2</sub>",
        "Molecular Mass": "100.16",
        "Boiling Point": "147 °C"
    }
}