{
    "cas_no": "5404-86-4",
    "key_name": "6-Hydrazinyl-9<em>H</em>-purine",
    "cn_name": "6-肼基嘌呤;",
    "alternate_name": "9<em>H</em>-Purine, 6-hydrazinyl-;Purine, 6-hydrazino-;6<em>H</em>-Purin-6-one, 1,7-dihydro-, hydrazone;6-Hydrazinyl-9<em>H</em>-purine;6-Hydrazino-1<em>H</em>-purine;6-Hydrazinopurine;NSC 7354;6-Hydrazinyl-7<em>H</em>-purine;(9<em>H</em>-Purin-6-yl)-hydrazine",
    "duplicated_cas_no": "5648-42-0",
    "SMILES": "N(N)=C1C2=C(N=CN2)NC=N1",
    "meta_data": {
        "InChI": "InChI=1S/C5H6N6/c6-11-5-3-4(8-1-7-3)9-2-10-5/h1-2H,6H2,(H2,7,8,9,10,11)",
        "InChIKey": null,
        "Canonical SMILES": "N(N)=C1N=CNC=2N=CNC12",
        "Molecular Formula": "C<sub>5</sub>H<sub>6</sub>N<sub>6</sub>",
        "Molecular Mass": "150.14",
        "Melting Point": "230 °C"
    }
}