{
    "cas_no": "121-86-8",
    "key_name": "2-Chloro-4-nitrotoluene",
    "cn_name": "2-氯-4-硝基甲苯;",
    "alternate_name": "Benzene, 2-chloro-1-methyl-4-nitro-;Toluene, 2-chloro-4-nitro-;2-Chloro-1-methyl-4-nitrobenzene;2-Chloro-4-nitrotoluene;3-Chloro-4-methylnitrobenzene;2-Chloro-4-nitro-1-methylbenzene;1-Chloro-2-methyl-5-nitrobenzene;4-Nitro-2-chlorotoluene;2-Chloro-4-nitrophenylmethane;NSC 60111;3-Chloro-4-methyl-1-nitrobenzene;1-Methyl-2-chloro-4-nitrobenzene",
    "duplicated_cas_no": "",
    "SMILES": "N(=O)(=O)C1=CC(Cl)=C(C)C=C1",
    "meta_data": {
        "InChI": "InChI=1S/C7H6ClNO2/c1-5-2-3-6(9(10)11)4-7(5)8/h2-4H,1H3",
        "InChIKey": null,
        "Canonical SMILES": "O=N(=O)C1=CC=C(C(Cl)=C1)C",
        "Molecular Formula": "C<sub>7</sub>H<sub>6</sub>ClNO<sub>2</sub>",
        "Molecular Mass": "171.58",
        "Boiling Point": "260 °C @ Press: 760 Torr",
        "Melting Point": "68 °C"
    }
}