{
    "cas_no": "1144-74-7",
    "key_name": "4-Nitrobenzophenone",
    "cn_name": "4-硝基二苯甲酮;",
    "alternate_name": "Methanone, (4-nitrophenyl)phenyl-;Benzophenone, 4-nitro-;(4-Nitrophenyl)phenylmethanone;<em>p</em>-Nitrobenzophenone;4-Nitrobenzophenone;4-Nitrophenyl phenyl ketone;<em>p</em>-Nitrophenyl phenyl ketone;NSC 406623",
    "duplicated_cas_no": "",
    "SMILES": "C(=O)(C1=CC=C(N(=O)=O)C=C1)C2=CC=CC=C2",
    "meta_data": {
        "InChI": "InChI=1S/C13H9NO3/c15-13(10-4-2-1-3-5-10)11-6-8-12(9-7-11)14(16)17/h1-9H",
        "InChIKey": null,
        "Canonical SMILES": "O=C(C=1C=CC=CC1)C2=CC=C(C=C2)N(=O)=O",
        "Molecular Formula": "C<sub>13</sub>H<sub>9</sub>NO<sub>3</sub>",
        "Molecular Mass": "227.22",
        "Melting Point": "138 °C"
    }
}