{
    "cas_no": "5432-85-9",
    "key_name": "4-Isopropylcyclohexanone",
    "cn_name": "4-异丙基环己酮;",
    "alternate_name": "Cyclohexanone, 4-(1-methylethyl)-;Cyclohexanone, 4-isopropyl-;4-(1-Methylethyl)cyclohexanone;4-Isopropylcyclohexanone;NSC 21125;4-Isopropylcyclohexan-1-one",
    "duplicated_cas_no": "",
    "SMILES": "C(C)(C)C1CCC(=O)CC1",
    "meta_data": {
        "InChI": "InChI=1S/C9H16O/c1-7(2)8-3-5-9(10)6-4-8/h7-8H,3-6H2,1-2H3",
        "InChIKey": null,
        "Canonical SMILES": "O=C1CCC(CC1)C(C)C",
        "Molecular Formula": "C<sub>9</sub>H<sub>16</sub>O",
        "Molecular Mass": "140.22",
        "Boiling Point": "214-214.5 °C",
        "Density": "0.9175 g/cm³ @ Temp: 18 °C"
    }
}