{
    "cas_no": "6942-99-0",
    "key_name": "2,4-Dibromo-1,3,5-trimethylbenzene",
    "cn_name": "2,4-二溴三甲基苯;",
    "alternate_name": "Benzene, 2,4-dibromo-1,3,5-trimethyl-;Mesitylene, 2,4-dibromo-;2,4-Dibromo-1,3,5-trimethylbenzene;2,4-Dibromomesitylene;NSC 51629;1,3-Dibromo-2,4,6-trimethylbenzene",
    "duplicated_cas_no": "",
    "SMILES": "BrC1=C(C)C(Br)=C(C)C=C1C",
    "meta_data": {
        "InChI": "InChI=1S/C9H10Br2/c1-5-4-6(2)9(11)7(3)8(5)10/h4H,1-3H3",
        "InChIKey": null,
        "Canonical SMILES": "BrC1=C(C=C(C(Br)=C1C)C)C",
        "Molecular Formula": "C<sub>9</sub>H<sub>10</sub>Br<sub>2</sub>",
        "Molecular Mass": "277.98",
        "Boiling Point": "285 °C",
        "Melting Point": "65.5 °C"
    }
}