{
    "cas_no": "1504-55-8",
    "key_name": "2-Methyl-3-phenyl-2-propen-1-ol",
    "cn_name": "2-甲基-3-苯基-2-丙烯-1-醇;",
    "alternate_name": "2-Propen-1-ol, 2-methyl-3-phenyl-;2-Methyl-3-phenyl-2-propen-1-ol;α-Methylcinnamyl alcohol;2-Methyl-3-phenyl-2-propenol",
    "duplicated_cas_no": "",
    "SMILES": "C(=C(CO)C)C1=CC=CC=C1",
    "meta_data": {
        "InChI": "InChI=1S/C10H12O/c1-9(8-11)7-10-5-3-2-4-6-10/h2-7,11H,8H2,1H3",
        "InChIKey": null,
        "Canonical SMILES": "OCC(=CC=1C=CC=CC1)C",
        "Molecular Formula": "C<sub>10</sub>H<sub>12</sub>O",
        "Molecular Mass": "148.20",
        "Boiling Point": "85-88 °C",
        "Melting Point": "24-25 °C"
    }
}