{
    "cas_no": "21470-41-7",
    "key_name": "4,4′-Bis(pentyloxy)-1,1′-biphenyl",
    "cn_name": "4,4-二正戊氧基联苯;",
    "alternate_name": "1,1′-Biphenyl, 4,4′-bis(pentyloxy)-;Biphenyl, 4,4′-bis(pentyloxy)-;4,4′-Bis(pentyloxy)-1,1′-biphenyl;1-Pentoxy-4-(4-pentoxyphenyl)benzene;4,4′-Di(pentyloxy)biphenyl",
    "duplicated_cas_no": "",
    "SMILES": "O(CCCCC)C1=CC=C(C=C1)C2=CC=C(OCCCCC)C=C2",
    "meta_data": {
        "InChI": "InChI=1S/C22H30O2/c1-3-5-7-17-23-21-13-9-19(10-14-21)20-11-15-22(16-12-20)24-18-8-6-4-2/h9-16H,3-8,17-18H2,1-2H3",
        "InChIKey": null,
        "Canonical SMILES": "O(C=1C=CC(=CC1)C2=CC=C(OCCCCC)C=C2)CCCCC",
        "Molecular Formula": "C<sub>22</sub>H<sub>30</sub>O<sub>2</sub>",
        "Molecular Mass": "326.47",
        "Melting Point": "162-165 °C"
    }
}