{
    "cas_no": "125-13-3",
    "key_name": "Oxyphenisatin",
    "cn_name": "3,3-二(4-羟基苯基)-2(3H)-吲哚酮;二酚靛红;",
    "alternate_name": "2<em>H</em>-Indol-2-one, 1,3-dihydro-3,3-bis(4-hydroxyphenyl)-;2-Indolinone, 3,3-bis(<em>p</em>-hydroxyphenyl)-;Oxindole, 3,3-bis(<em>p</em>-hydroxyphenyl)-;1,3-Dihydro-3,3-bis(4-hydroxyphenyl)-2<em>H</em>-indol-2-one;3,3-Bis(<em>p</em>-hydroxyphenyl)-2-indolinone;3,3-Bis(<em>p</em>-hydroxyphenyl)oxindole;3,3-Bis(4-hydroxyphenyl)oxindole;Diphenolisatin;Neodrast;Oxyphenisatin;Oxyphenisatine;Phenolisatin;Veripaque;Lavema;4,4′-Dihydroxydiphenylisatin;Isolax;Isatinbisphenol;Hoscolax;Normalax;Propellax;Recolon;NSC 59814;3,3-Bis(4-hydroxyphenyl)-1,3-dihydroindol-2-one;3,3-Bis(4-hydroxyphenyl)-1<em>H</em>-indol-2-one",
    "duplicated_cas_no": "",
    "SMILES": "O=C1C(C=2C(N1)=CC=CC2)(C3=CC=C(O)C=C3)C4=CC=C(O)C=C4",
    "meta_data": {
        "InChI": "InChI=1S/C20H15NO3/c22-15-9-5-13(6-10-15)20(14-7-11-16(23)12-8-14)17-3-1-2-4-18(17)21-19(20)24/h1-12,22-23H,(H,21,24)",
        "InChIKey": null,
        "Canonical SMILES": "O=C1NC=2C=CC=CC2C1(C3=CC=C(O)C=C3)C4=CC=C(O)C=C4",
        "Molecular Formula": "C<sub>20</sub>H<sub>15</sub>NO<sub>3</sub>",
        "Molecular Mass": "317.34",
        "Melting Point": "260-261 °C"
    }
}