{
    "cas_no": "10389-51-2",
    "key_name": "4-(4-Nitrophenyl)morpholine",
    "cn_name": "4-(4-硝基苯基)吗啉;",
    "alternate_name": "Morpholine, 4-(4-nitrophenyl)-;Morpholine, 4-(<em>p</em>-nitrophenyl)-;4-(4-Nitrophenyl)morpholine;<em>p</em>-Morpholinonitrobenzene;4-(<em>p</em>-Nitrophenyl)morpholine;NSC 27271;4-Morpholinonitrobenzene;<em>N</em>-(4-Nitrophenyl)morpholine",
    "duplicated_cas_no": "",
    "SMILES": "N(=O)(=O)C1=CC=C(C=C1)N2CCOCC2",
    "meta_data": {
        "InChI": "InChI=1S/C10H12N2O3/c13-12(14)10-3-1-9(2-4-10)11-5-7-15-8-6-11/h1-4H,5-8H2",
        "InChIKey": null,
        "Canonical SMILES": "O=N(=O)C1=CC=C(C=C1)N2CCOCC2",
        "Molecular Formula": "C<sub>10</sub>H<sub>12</sub>N<sub>2</sub>O<sub>3</sub>",
        "Molecular Mass": "208.21",
        "Melting Point": "149-150 °C"
    }
}