{
    "cas_no": "1758-80-1",
    "key_name": "<span class=\"text-smallcaps\">L</span>-2,4-Diaminobutyric acid",
    "cn_name": "L-2,4-二氨基丁酸氢溴酸盐;",
    "alternate_name": "Butanoic acid, 2,4-diamino-, (2<em>S</em>)-;Butyric acid, 2,4-diamino-, <span class=\"text-smallcaps\">L</span>-;Butanoic acid, 2,4-diamino-, (<em>S</em>)-;(2<em>S</em>)-2,4-Diaminobutanoic acid;<span class=\"text-smallcaps\">L</span>-α,γ-Diaminobutyric acid;<span class=\"text-smallcaps\">L</span>-2,4-Diaminobutanoic acid;(<em>S</em>)-2,4-Diaminobutyric acid;<span class=\"text-smallcaps\">L</span>-2,4-Diaminobutyric acid;<span class=\"text-smallcaps\">L</span>-2,4-Diamino-<em>n</em>-butyric acid;<span class=\"text-smallcaps\">L</span>-DABA;(2S)-2,4-Diaminobutanoic acid",
    "duplicated_cas_no": "",
    "SMILES": "[C@H](CCN)(C(O)=O)N",
    "meta_data": {
        "InChI": "InChI=1S/C4H10N2O2/c5-2-1-3(6)4(7)8/h3H,1-2,5-6H2,(H,7,8)/t3-/m0/s1",
        "InChIKey": null,
        "Canonical SMILES": "O=C(O)C(N)CCN",
        "Molecular Formula": "C<sub>4</sub>H<sub>10</sub>N<sub>2</sub>O<sub>2</sub>",
        "Molecular Mass": "118.13",
        "Melting Point": "216-218 °C"
    }
}