{
    "cas_no": "116182-44-6",
    "key_name": "Nonanoic acid, 9-[[4-[hexahydro-3,8-dihydroxy-2-(2-hydroxy-1-methylpropyl)-2<em>H</em>,5<em>H</em>-pyrano[4,3-<em>b</em>]pyran-7-yl]-3-methyl-1-oxo-2-butenyl]oxy]-, monosodium salt, [2<em>R</em>-[2α(1<em>S</em>*,2<em>S</em>*),3β,4aα,7β(<em>E</em>),8α,8aβ]]-",
    "cn_name": null,
    "alternate_name": "Nonanoic acid, 9-[[4-[hexahydro-3,8-dihydroxy-2-(2-hydroxy-1-methylpropyl)-2<em>H</em>,5<em>H</em>-pyrano[4,3-<em>b</em>]pyran-7-yl]-3-methyl-1-oxo-2-butenyl]oxy]-, monosodium salt, [2<em>R</em>-[2α(1<em>S</em>*,2<em>S</em>*),3β,4aα,7β(<em>E</em>),8α,8aβ]]-;2<em>H</em>,5<em>H</em>-Pyrano[4,3-<em>b</em>]pyran, nonanoic acid deriv.",
    "duplicated_cas_no": "",
    "SMILES": "O[C@@H]1[C@]2([C@@](C[C@H](O)[C@@]([C@H]([C@H](C)O)C)(O2)[H])(CO[C@H]1C/C(=C/C(OCCCCCCCCC(O)=O)=O)/C)[H])[H].[Na]",
    "meta_data": {
        "InChI": "InChI=1S/C26H44O9.Na/c1-16(13-23(31)33-11-9-7-5-4-6-8-10-22(29)30)12-21-24(32)26-19(15-34-21)14-20(28)25(35-26)17(2)18(3)27;/h13,17-21,24-28,32H,4-12,14-15H2,1-3H3,(H,29,30);/b16-13+;/t17-,18-,19-,20-,21-,24-,25+,26+;/m0./s1",
        "InChIKey": null,
        "Canonical SMILES": "[Na].O=C(O)CCCCCCCCOC(=O)C=C(C)CC1OCC2CC(O)C(OC2C1O)C(C)C(O)C",
        "Molecular Formula": "C<sub>26</sub>H<sub>44</sub>O<sub>9</sub>.Na",
        "Molecular Mass": "",
        "Melting Point": "138-139 °C"
    }
}