{
    "cas_no": "121-44-8",
    "key_name": "Triethylamine",
    "cn_name": "三乙胺;N,N-二乙基乙胺;",
    "alternate_name": "Ethanamine, <em>N</em>,<em>N</em>-diethyl-;Triethylamine;<em>N</em>,<em>N</em>-Diethylethanamine;(Diethylamino)ethane;TEA;<em>N</em>,<em>N</em>,<em>N</em>-Triethylamine;LE 11-5RG;ATB 0489;T 0886",
    "duplicated_cas_no": "144514-14-7;168277-99-4;172227-74-6;449752-61-8;750564-56-8;1200828-44-9;1633017-83-0;2011746-49-7",
    "SMILES": "N(CC)(CC)CC",
    "meta_data": {
        "InChI": "InChI=1S/C6H15N/c1-4-7(5-2)6-3/h4-6H2,1-3H3",
        "InChIKey": null,
        "Canonical SMILES": "N(CC)(CC)CC",
        "Molecular Formula": "C<sub>6</sub>H<sub>15</sub>N",
        "Molecular Mass": "101.19",
        "Boiling Point": "89.3 °C",
        "Melting Point": "-114.7 °C",
        "Density": "0.7255 g/cm³ @ Temp: 25 °C"
    }
}