{
    "cas_no": "6914-73-4",
    "key_name": "Cyclopropanecarboxylic acid, 1-cyano-, methyl ester",
    "cn_name": null,
    "alternate_name": "Cyclopropanecarboxylic acid, 1-cyano-, methyl ester;Methyl 1-cyanocyclopropanecarboxylate;NSC 600026",
    "duplicated_cas_no": "",
    "SMILES": "C(OC)(=O)C1(C#N)CC1",
    "meta_data": {
        "InChI": "InChI=1S/C6H7NO2/c1-9-5(8)6(4-7)2-3-6/h2-3H2,1H3",
        "InChIKey": null,
        "Canonical SMILES": "N#CC1(C(=O)OC)CC1",
        "Molecular Formula": "C<sub>6</sub>H<sub>7</sub>NO<sub>2</sub>",
        "Molecular Mass": "125.13",
        "Boiling Point": "92 °C @ Press: 18 Torr"
    }
}