{
    "cas_no": "18467-77-1",
    "key_name": "2,3:4,6-di-<em>O</em>-Isopropylidene-2-<em>keto</em>-<span class=\"text-smallcaps\">L</span>-gulonic acid",
    "cn_name": null,
    "alternate_name": "α-<span class=\"text-smallcaps\">L</span>-<em>xylo</em>-2-Hexulofuranosonic acid, 2,3:4,6-bis-<em>O</em>-(1-methylethylidene)-;<span class=\"text-smallcaps\">L</span>-<em>xylo</em>-Hexulofuranosonic acid, 2,3:4,6-di-<em>O</em>-isopropylidene-, α-;7<em>H</em>-1,3-Dioxolo[4,5]furo[3,2-<em>d</em>][1,3]dioxin, α-<span class=\"text-smallcaps\">L</span>-<em>xylo</em>-2-hexulofuranosonic acid deriv.;2,3:4,6-Bis-<em>O</em>-(1-methylethylidene)-α-<span class=\"text-smallcaps\">L</span>-<em>xylo</em>-2-hexulofuranosonic acid;2,3:4,6-Diacetone-2-ketogulonic acid;2,3:4,6-Di-<em>O</em>-isopropylidene-<span class=\"text-smallcaps\">L</span>-<em>xylo</em>-hexulosonic acid;2,3:4,6-di-<em>O</em>-Isopropylidene-2-<em>keto</em>-<span class=\"text-smallcaps\">L</span>-gulonic acid;Diacetone-2-oxo-<span class=\"text-smallcaps\">L</span>-gulonic acid;Oxogulonic acid diacetonide;Diacetone-2-ketogulonic acid;Diacetone-2-<em>keto</em>-<span class=\"text-smallcaps\">L</span>-gulonic acid;2-Keto-<span class=\"text-smallcaps\">L</span>-gulonic acid, diacetone deriv.;2-<em>keto</em>-<span class=\"text-smallcaps\">L</span>-Gulonic acid, diacetone deriv.;Diprogulic acid;2,3:4,6-Diisopropylidene-2-<em>keto</em>-<span class=\"text-smallcaps\">L</span>-gulonic acid;(-)-2,3:4,6-Di-<em>O</em>-isopropylidene-2-<em>keto</em>-<span class=\"text-smallcaps\">L</span>-gulonic acid;Diacetone 2-<em>keto</em>-1-gulonic acid",
    "duplicated_cas_no": "3768-13-6;26996-98-5;27708-72-1;28300-95-0;49813-52-7;56225-64-0;56288-61-0;59795-40-3;64040-42-2;72349-14-5;129607-69-8;131400-21-0;136881-53-3;1253699-69-2;1671061-51-0",
    "SMILES": "C(O)(=O)[C@]12[C@]([C@]3([C@@](O1)(COC(C)(C)O3)[H])[H])(OC(C)(C)O2)[H]",
    "meta_data": {
        "InChI": "InChI=1S/C12H18O7/c1-10(2)15-5-6-7(17-10)8-12(16-6,9(13)14)19-11(3,4)18-8/h6-8H,5H2,1-4H3,(H,13,14)/t6-,7+,8-,12+/m0/s1",
        "InChIKey": null,
        "Canonical SMILES": "O=C(O)C12OC3COC(OC3C2OC(O1)(C)C)(C)C",
        "Molecular Formula": "C<sub>12</sub>H<sub>18</sub>O<sub>7</sub>",
        "Molecular Mass": "274.27",
        "Melting Point": "74 °C"
    }
}