{
    "cas_no": "14062-19-2",
    "key_name": "Benzeneacetic acid, 4-methyl-, ethyl ester",
    "cn_name": "对甲苯基乙;",
    "alternate_name": "Benzeneacetic acid, 4-methyl-, ethyl ester;Acetic acid, <em>p</em>-tolyl-, ethyl ester;Ethyl <em>p</em>-tolylacetate;<em>p</em>-Tolylacetic acid ethyl ester;Ethyl (4-methylphenyl)acetate;Ethyl 4-methylbenzeneacetate;Ethyl α-(<em>p</em>-tolyl)acetate;NSC 46878;Ethyl 2-(<em>p</em>-tolyl)acetate;4-Methylbenzeneacetic acid ethyl ester",
    "duplicated_cas_no": "",
    "SMILES": "C(C(OCC)=O)C1=CC=C(C)C=C1",
    "meta_data": {
        "InChI": "InChI=1S/C11H14O2/c1-3-13-11(12)8-10-6-4-9(2)5-7-10/h4-7H,3,8H2,1-2H3",
        "InChIKey": null,
        "Canonical SMILES": "O=C(OCC)CC1=CC=C(C=C1)C",
        "Molecular Formula": "C<sub>11</sub>H<sub>14</sub>O<sub>2</sub>",
        "Molecular Mass": "178.23",
        "Boiling Point": "72-74 °C @ Press: 0.9 Torr"
    }
}