{
    "cas_no": "1121-89-7",
    "key_name": "Glutarimide",
    "cn_name": "戊二酰亚胺;",
    "alternate_name": "2,6-Piperidinedione;Glutarimide;NSC 168666;NSC 58190",
    "duplicated_cas_no": "",
    "SMILES": "O=C1NC(=O)CCC1",
    "meta_data": {
        "InChI": "InChI=1S/C5H7NO2/c7-4-2-1-3-5(8)6-4/h1-3H2,(H,6,7,8)",
        "InChIKey": null,
        "Canonical SMILES": "O=C1NC(=O)CCC1",
        "Molecular Formula": "C<sub>5</sub>H<sub>7</sub>NO<sub>2</sub>",
        "Molecular Mass": "113.11",
        "Melting Point": "152-153 °C"
    }
}