{
    "cas_no": "111-87-5",
    "key_name": "1-Octanol",
    "cn_name": "1-辛醇;正辛醇;",
    "alternate_name": "1-Octanol;Octyl alcohol;Caprylic alcohol;Heptyl carbinol;<em>n</em>-Octanol;<em>n</em>-Octyl alcohol;Sipol L8;Alfol 8;Octanol;Octilin;<em>n</em>-Octan-1-ol;1-Hydroxyoctane;CO 898;CO 898 (solvent);NSC 9823;Lorol C 8-98;Kalcohl 0898;Kalcol 0898;Caprylyl alcohol;MeSH ID: D020003;Conol 10WS",
    "duplicated_cas_no": "220713-26-8",
    "SMILES": "C(CCCC)CCCO",
    "meta_data": {
        "InChI": "InChI=1S/C8H18O/c1-2-3-4-5-6-7-8-9/h9H,2-8H2,1H3",
        "InChIKey": null,
        "Canonical SMILES": "OCCCCCCCC",
        "Molecular Formula": "C<sub>8</sub>H<sub>18</sub>O",
        "Molecular Mass": "130.23",
        "Boiling Point": "194-195 °C",
        "Melting Point": "-17--16 °C",
        "Density": "0.827 g/cm³ @ Temp: 20 °C"
    }
}