{
    "cas_no": "119-30-2",
    "key_name": "5-Iodosalicylic acid",
    "cn_name": "5-碘水杨酸;",
    "alternate_name": "Benzoic acid, 2-hydroxy-5-iodo-;Salicylic acid, 5-iodo-;2-Hydroxy-5-iodobenzoic acid;5-Iodosalicylic acid;5-Iodo-2-hydroxybenzoic acid;6-Hydroxy-3-iodobenzoic acid;NSC 2789",
    "duplicated_cas_no": "",
    "SMILES": "C(O)(=O)C1=C(O)C=CC(I)=C1",
    "meta_data": {
        "InChI": "InChI=1S/C7H5IO3/c8-4-1-2-6(9)5(3-4)7(10)11/h1-3,9H,(H,10,11)",
        "InChIKey": null,
        "Canonical SMILES": "O=C(O)C1=CC(I)=CC=C1O",
        "Molecular Formula": "C<sub>7</sub>H<sub>5</sub>IO<sub>3</sub>",
        "Molecular Mass": "264.02",
        "Melting Point": "190 °C"
    }
}