{
    "cas_no": "74-84-0",
    "key_name": "Ethane",
    "cn_name": "乙烷;液化乙烷;",
    "alternate_name": "Ethane;Bimethyl;Dimethyl;Ethyl hydride;Methylmethane;R 170;R 170 (hydrocarbon);MeSH ID: D004980",
    "duplicated_cas_no": "",
    "SMILES": "CC",
    "meta_data": {
        "InChI": "InChI=1S/C2H6/c1-2/h1-2H3",
        "InChIKey": null,
        "Canonical SMILES": "CC",
        "Molecular Formula": "C<sub>2</sub>H<sub>6</sub>",
        "Molecular Mass": "30.07",
        "Boiling Point": "-88 °C",
        "Melting Point": "-172 °C",
        "Density": "0.5490 g/cm³"
    }
}