{
    "cas_no": "45019-28-1",
    "key_name": "4-Methylnonanoic acid",
    "cn_name": "4-甲基壬酸;",
    "alternate_name": "Nonanoic acid, 4-methyl-;4-Methylnonanoic acid",
    "duplicated_cas_no": "124842-68-8",
    "SMILES": "C(CCC(O)=O)(CCCCC)C",
    "meta_data": {
        "InChI": "InChI=1S/C10H20O2/c1-3-4-5-6-9(2)7-8-10(11)12/h9H,3-8H2,1-2H3,(H,11,12)",
        "InChIKey": null,
        "Canonical SMILES": "O=C(O)CCC(C)CCCCC",
        "Molecular Formula": "C<sub>10</sub>H<sub>20</sub>O<sub>2</sub>",
        "Molecular Mass": "172.26",
        "Boiling Point": "92 °C @ Press: 0.1 Torr"
    }
}