{
    "cas_no": "69604-00-8",
    "key_name": "2-Benzofurancarboxylic acid, 5-nitro-, ethyl ester",
    "cn_name": "5-硝基苯并呋喃-2-羧酸乙酯;乙基-5-硝基苯并呋喃-2-羧酸酯;",
    "alternate_name": "2-Benzofurancarboxylic acid, 5-nitro-, ethyl ester;Ethyl 5-nitrobenzofuran-2-carboxylate;5-Nitro-2-benzofurancarboxylic acid ethyl ester;Ethyl 5-nitrobenzo[<em>d</em>]furan-2-carboxylate;Ethyl 5-nitrobenzo[<em>b</em>]furan-2-carboxylate;Ethyl 5-nitro-1-benzofuran-2-carboxylate;Ethyl 5-nitrobenzofuran-2-formate",
    "duplicated_cas_no": "",
    "SMILES": "C(OCC)(=O)C1=CC=2C(O1)=CC=C(N(=O)=O)C2",
    "meta_data": {
        "InChI": "InChI=1S/C11H9NO5/c1-2-16-11(13)10-6-7-5-8(12(14)15)3-4-9(7)17-10/h3-6H,2H2,1H3",
        "InChIKey": null,
        "Canonical SMILES": "O=C(OCC)C=1OC=2C=CC(=CC2C1)N(=O)=O",
        "Molecular Formula": "C<sub>11</sub>H<sub>9</sub>NO<sub>5</sub>",
        "Molecular Mass": "235.19",
        "Melting Point": "152-153 °C"
    }
}