{
    "cas_no": "4071-88-9",
    "key_name": "Ethyl (trimethylsilyl)acetate",
    "cn_name": "(三甲基硅基)乙酸乙酯;三甲基硅乙酸乙酯;",
    "alternate_name": "Acetic acid, 2-(trimethylsilyl)-, ethyl ester;Acetic acid, (trimethylsilyl)-, ethyl ester;Ethyl 2-(trimethylsilyl)acetate;Ethyl α-(trimethylsilyl)acetate;2-(Trimethylsilyl)acetic acid ethyl ester;Ethyl (trimethylsilyl)acetate;NSC 108051;NSC 234752;(Trimethylsilyl)acetic acid ethyl ester",
    "duplicated_cas_no": "150059-67-9",
    "SMILES": "C(C[Si](C)(C)C)(OCC)=O",
    "meta_data": {
        "InChI": "InChI=1S/C7H16O2Si/c1-5-9-7(8)6-10(2,3)4/h5-6H2,1-4H3",
        "InChIKey": null,
        "Canonical SMILES": "O=C(OCC)C[Si](C)(C)C",
        "Molecular Formula": "C<sub>7</sub>H<sub>16</sub>O<sub>2</sub>Si",
        "Molecular Mass": "160.29",
        "Boiling Point": "157-158 °C",
        "Density": "0.876 g/cm³"
    }
}