{
    "cas_no": "58728-64-6",
    "key_name": "4-Amino-1-naphthalenecarbonitrile",
    "cn_name": "4-氨基-1-萘羧腈;",
    "alternate_name": "1-Naphthalenecarbonitrile, 4-amino-;4-Amino-1-naphthalenecarbonitrile;4-Cyano-1-naphthylamine;1-Amino-4-cyanonaphthalene;4-Amino-1-naphthonitrile",
    "duplicated_cas_no": "",
    "SMILES": "C(#N)C=1C2=C(C(N)=CC1)C=CC=C2",
    "meta_data": {
        "InChI": "InChI=1S/C11H8N2/c12-7-8-5-6-11(13)10-4-2-1-3-9(8)10/h1-6H,13H2",
        "InChIKey": null,
        "Canonical SMILES": "N#CC1=CC=C(N)C=2C=CC=CC12",
        "Molecular Formula": "C<sub>11</sub>H<sub>8</sub>N<sub>2</sub>",
        "Molecular Mass": "168.19",
        "Melting Point": "170-172 °C"
    }
}