{
    "cas_no": "5289-74-7",
    "key_name": "20-Hydroxyecdysone",
    "cn_name": "蜕皮激素;beta-蜕皮甾酮;beta-蜕皮激素;20-羟基蜕皮甾酮;",
    "alternate_name": "Cholest-7-en-6-one, 2,3,14,20,22,25-hexahydroxy-, (2β,3β,5β,22<em>R</em>)-;5β-Cholest-7-en-6-one, 2β,3β,14,20,22,25-hexahydroxy-, (22<em>R</em>)-;5β-Cholest-7-en-6-one, 2β,3β,14,20,22β,25-hexahydroxy-;(2β,3β,5β,22<em>R</em>)-2,3,14,20,22,25-Hexahydroxycholest-7-en-6-one;Ecdysterone;Crustecdysone;Isoinokosterone;20-Hydroxyecdysone;β-Ecdysone;Polypodine A;20-Hydroxy-α-ecdysone;Commisterone;THE 7;Ecdysteron;Crustecdyson;Viticosterone;β-Ecdysterone;Ecdysone;Polypodine C;Polypodin C;Polypodin A;20<em>R</em>-Hydroxyecdysone;Ekdisten;(+)-Ecdysterone;Ecdysten;2β,3β,14α,20β,22α,25-Hexahydroxycholest-7-en-6-one;β-Ecydisone;(+)-20-Hydroxyecdysone;Sarconeos;BIO 101;MeSH ID: D004441",
    "duplicated_cas_no": "138673-65-1;11006-05-6;11036-20-7;15266-33-8;15971-08-1;31575-90-3",
    "SMILES": "O[C@]12C=3[C@@]([C@]4(C)[C@](C(=O)C3)(C[C@@H](O)[C@@H](O)C4)[H])(CC[C@]1(C)[C@@]([C@@]([C@@H](CCC(C)(C)O)O)(C)O)(CC2)[H])[H]",
    "meta_data": {
        "InChI": "InChI=1S/C27H44O7/c1-23(2,32)9-8-22(31)26(5,33)21-7-11-27(34)16-12-18(28)17-13-19(29)20(30)14-24(17,3)15(16)6-10-25(21,27)4/h12,15,17,19-22,29-34H,6-11,13-14H2,1-5H3/t15-,17-,19+,20-,21-,22+,24+,25+,26+,27+/m0/s1",
        "InChIKey": null,
        "Canonical SMILES": "O=C1C=C2C(CCC3(C)C(CCC23O)C(O)(C)C(O)CCC(O)(C)C)C4(C)CC(O)C(O)CC14",
        "Molecular Formula": "C<sub>27</sub>H<sub>44</sub>O<sub>7</sub>",
        "Molecular Mass": "480.63",
        "Melting Point": "242 °C (decomp)"
    }
}