{
    "cas_no": "6968-28-1",
    "key_name": "4-Bromophthalic acid",
    "cn_name": "4-溴邻苯二甲酸;4-溴酞酸;",
    "alternate_name": "1,2-Benzenedicarboxylic acid, 4-bromo-;Phthalic acid, 4-bromo-;4-Bromo-1,2-benzenedicarboxylic acid;4-Bromophthalic acid;NSC 20682;4-Bromobenzene-1,2-dioic acid",
    "duplicated_cas_no": "",
    "SMILES": "C(O)(=O)C1=C(C(O)=O)C=C(Br)C=C1",
    "meta_data": {
        "InChI": "InChI=1S/C8H5BrO4/c9-4-1-2-5(7(10)11)6(3-4)8(12)13/h1-3H,(H,10,11)(H,12,13)",
        "InChIKey": null,
        "Canonical SMILES": "O=C(O)C1=CC=C(Br)C=C1C(=O)O",
        "Molecular Formula": "C<sub>8</sub>H<sub>5</sub>BrO<sub>4</sub>",
        "Molecular Mass": "245.03",
        "Melting Point": "170.5 °C"
    }
}