{
    "cas_no": "95-06-7",
    "key_name": "Sulfallate",
    "cn_name": "草克死;",
    "alternate_name": "Carbamodithioic acid, <em>N</em>,<em>N</em>-diethyl-, 2-chloro-2-propen-1-yl ester;Carbamic acid, diethyldithio-, 2-chloroallyl ester;Carbamodithioic acid, diethyl-, 2-chloro-2-propenyl ester;CP 4,742;Chlorallyl diethyldithiocarbamate;2-Chloroallyl <em>N</em>,<em>N</em>-diethyldithiocarbamate;2-Chloroallyl diethyldithiocarbamate;Diethyldithiocarbamic acid 2-chloroallyl ester;Vegadex;CDEC;Sulfallate;Thioallate;Vegadex super;2-Chlorallyl diethyldithiocarbamate;NSC 16085;2-Chloroallyl diethylcarbamodithioate",
    "duplicated_cas_no": "",
    "SMILES": "N(C(SCC(=C)Cl)=S)(CC)CC",
    "meta_data": {
        "InChI": "InChI=1S/C8H14ClNS2/c1-4-10(5-2)8(11)12-6-7(3)9/h3-6H2,1-2H3",
        "InChIKey": null,
        "Canonical SMILES": "S=C(SCC(Cl)=C)N(CC)CC",
        "Molecular Formula": "C<sub>8</sub>H<sub>14</sub>ClNS<sub>2</sub>",
        "Molecular Mass": "223.79",
        "Boiling Point": "128-130 °C",
        "Density": "1.088 g/cm³ @ Temp: 25 °C"
    }
}