{
    "cas_no": "7493-63-2",
    "key_name": "Allyl anthranilate",
    "cn_name": "邻氨基苯甲酸烯丙酯;",
    "alternate_name": "Benzoic acid, 2-amino-, 2-propen-1-yl ester;Anthranilic acid, allyl ester;Benzoic acid, 2-amino-, 2-propenyl ester;Allyl anthranilate;Allyl 2-aminobenzoate;NSC 147476",
    "duplicated_cas_no": "",
    "SMILES": "C(OCC=C)(=O)C1=C(N)C=CC=C1",
    "meta_data": {
        "InChI": "InChI=1S/C10H11NO2/c1-2-7-13-10(12)8-5-3-4-6-9(8)11/h2-6H,1,7,11H2",
        "InChIKey": null,
        "Canonical SMILES": "O=C(OCC=C)C=1C=CC=CC1N",
        "Molecular Formula": "C<sub>10</sub>H<sub>11</sub>NO<sub>2</sub>",
        "Molecular Mass": "177.20",
        "Boiling Point": "104-105 °C @ Press: 0.4 Torr"
    }
}