{
    "cas_no": "5112-95-8",
    "key_name": "Bis(diphenylphosphino)acetylene",
    "cn_name": "双(二苯基膦)乙炔;双(二苯基磷)乙炔;",
    "alternate_name": "Phosphine, 1,1′-(1,2-ethynediyl)bis[1,1-diphenyl-;Phosphine, ethynylenebis[diphenyl-;Phosphine, 1,2-ethynediylbis[diphenyl-;1,1′-(1,2-Ethynediyl)bis[1,1-diphenylphosphine];Bis(diphenylphosphino)acetylene;Bis(diphenylphosphino)ethyne;1,2-Bis(diphenylphosphino)acetylene;1,2-Bis(diphenylphosphino)ethyne;((Diphenylphosphino)ethynyl)diphenylphosphine;NSC 164872;2-Diphenylphosphanylethynyl(diphenyl)phosphane",
    "duplicated_cas_no": "",
    "SMILES": "P(C#CP(C1=CC=CC=C1)C2=CC=CC=C2)(C3=CC=CC=C3)C4=CC=CC=C4",
    "meta_data": {
        "InChI": "InChI=1S/C26H20P2/c1-5-13-23(14-6-1)27(24-15-7-2-8-16-24)21-22-28(25-17-9-3-10-18-25)26-19-11-4-12-20-26/h1-20H",
        "InChIKey": null,
        "Canonical SMILES": "C(#CP(C=1C=CC=CC1)C=2C=CC=CC2)P(C=3C=CC=CC3)C=4C=CC=CC4",
        "Molecular Formula": "C<sub>26</sub>H<sub>20</sub>P<sub>2</sub>",
        "Molecular Mass": "394.38",
        "Melting Point": "86 °C (decomp)"
    }
}