{
    "cas_no": "77-84-9",
    "key_name": "2-Ethyl-2-methyl-1,3-propanediol",
    "cn_name": "2-乙基-2-甲基-1,3-丙二醇;",
    "alternate_name": "1,3-Propanediol, 2-ethyl-2-methyl-;2-Ethyl-2-methyl-1,3-propanediol;2-Methyl-2-ethyl-1,3-propanediol;NSC 35408;2,2-Dimethylol butane",
    "duplicated_cas_no": "",
    "SMILES": "C(CC)(CO)(CO)C",
    "meta_data": {
        "InChI": "InChI=1S/C6H14O2/c1-3-6(2,4-7)5-8/h7-8H,3-5H2,1-2H3",
        "InChIKey": null,
        "Canonical SMILES": "OCC(C)(CO)CC",
        "Molecular Formula": "C<sub>6</sub>H<sub>14</sub>O<sub>2</sub>",
        "Molecular Mass": "118.17",
        "Boiling Point": "225.8 °C",
        "Melting Point": "40.3 °C"
    }
}