{
    "cas_no": "16681-69-9",
    "key_name": "1-Methyl-1<em>H</em>-1,2,3-triazole-4-carboxaldehyde",
    "cn_name": null,
    "alternate_name": "1<em>H</em>-1,2,3-Triazole-4-carboxaldehyde, 1-methyl-;1-Methyl-1<em>H</em>-1,2,3-triazole-4-carboxaldehyde;1-Methyl-1,2,3-triazole-4-carboxaldehyde;1-Methyl-1<em>H</em>-1,2,3-triazole-4-carbaldehyde",
    "duplicated_cas_no": "",
    "SMILES": "C(=O)C1=CN(C)N=N1",
    "meta_data": {
        "InChI": "InChI=1S/C4H5N3O/c1-7-2-4(3-8)5-6-7/h2-3H,1H3",
        "InChIKey": null,
        "Canonical SMILES": "O=CC=1N=NN(C1)C",
        "Molecular Formula": "C<sub>4</sub>H<sub>5</sub>N<sub>3</sub>O",
        "Molecular Mass": "111.10",
        "Melting Point": "113-113.5 °C"
    }
}