{
    "cas_no": "1306-25-8",
    "key_name": "Cadmium telluride",
    "cn_name": "碲化镉;",
    "alternate_name": "Cadmium telluride (CdTe);Cadmium telluride;Irtran 6;Cadmium monotelluride;Cadmium telluride (Cd<sub>0.5</sub>Te<sub>0.5</sub>)",
    "duplicated_cas_no": "23100-72-3;905982-64-1;1043877-50-4;1224515-43-8;1448522-72-2;2984549-53-1",
    "SMILES": "[Cd]=[Te]",
    "meta_data": {
        "InChI": "InChI=1S/Cd.Te",
        "InChIKey": null,
        "Canonical SMILES": "[Cd]=[Te]",
        "Molecular Formula": "CdTe",
        "Molecular Mass": "",
        "Melting Point": "1100 °C",
        "Density": "5.57 g/cm³"
    }
}