{
    "cas_no": "760-23-6",
    "key_name": "3,4-Dichloro-1-butene",
    "cn_name": null,
    "alternate_name": "1-Butene, 3,4-dichloro-;3,4-Dichloro-1-butene;1,2-Dichloro-3-butene",
    "duplicated_cas_no": "64037-54-3",
    "SMILES": "C(C=C)(CCl)Cl",
    "meta_data": {
        "InChI": "InChI=1S/C4H6Cl2/c1-2-4(6)3-5/h2,4H,1,3H2",
        "InChIKey": null,
        "Canonical SMILES": "ClCC(Cl)C=C",
        "Molecular Formula": "C<sub>4</sub>H<sub>6</sub>Cl<sub>2</sub>",
        "Molecular Mass": "125.00",
        "Boiling Point": "118.6 °C",
        "Melting Point": "-61 °C",
        "Density": "1.153 g/cm³ @ Temp: 25 °C"
    }
}