{
    "cas_no": "10424-65-4",
    "key_name": "Tetramethylammonium hydroxide pentahydrate",
    "cn_name": "四甲基氢氧化铵;",
    "alternate_name": "Methanaminium, <em>N</em>,<em>N</em>,<em>N</em>-trimethyl-, hydroxide, hydrate (1:1:5);Methanaminium, <em>N</em>,<em>N</em>,<em>N</em>-trimethyl-, hydroxide, pentahydrate;Ammonium, tetramethyl-, hydroxide, pentahydrate;Tetramethylammonium hydroxide pentahydrate",
    "duplicated_cas_no": "",
    "SMILES": "[N+](C)(C)(C)C.[OH-].O",
    "meta_data": {
        "InChI": "InChI=1S/C4H12N.6H2O/c1-5(2,3)4;;;;;;/h1-4H3;6*1H2/q+1;;;;;;/p-1",
        "InChIKey": null,
        "Canonical SMILES": "[OH-].O.C[N+](C)(C)C",
        "Molecular Formula": "C<sub>4</sub>H<sub>12</sub>N.5H<sub>2</sub>O.HO",
        "Molecular Mass": "",
        "Melting Point": "71 °C"
    }
}