{
    "cas_no": "668984-08-5",
    "key_name": "Borate(1-), trifluoro-2-naphthalenyl-, potassium (1:1), (<em>T</em>-4)-",
    "cn_name": null,
    "alternate_name": "Borate(1-), trifluoro-2-naphthalenyl-, potassium (1:1), (<em>T</em>-4)-;Borate(1-), trifluoro-2-naphthalenyl-, potassium, (<em>T</em>-4)-;Potassium trifluoro(naphthalen-2-yl)borate;Potassium trifluoro(2-naphthyl)borate;Potassium 2-naphthyltrifluoroborate",
    "duplicated_cas_no": "1412414-21-1;1439402-00-2",
    "SMILES": "[B+3]([F-])([F-])([F-])[C-]1=CC2=C(C=C1)C=CC=C2.[K+]",
    "meta_data": {
        "InChI": "InChI=1S/C10H7BF3.K/c12-11(13,14)10-6-5-8-3-1-2-4-9(8)7-10;/h1-7H;/q-1;+1",
        "InChIKey": null,
        "Canonical SMILES": "[K+].[F-][B+3]([F-])([F-])[C-]=1C=CC=2C=CC=CC2C1",
        "Molecular Formula": "C<sub>10</sub>H<sub>7</sub>BF<sub>3</sub>.K",
        "Molecular Mass": "",
        "Melting Point": "&gt;260 °C"
    }
}