{
    "cas_no": "1635-61-6",
    "key_name": "5-Chloro-2-nitroaniline",
    "cn_name": "2-硝基-5-氯苯胺;5-氯-2-硝基苯胺;",
    "alternate_name": "Benzenamine, 5-chloro-2-nitro-;Aniline, 5-chloro-2-nitro-;5-Chloro-2-nitrobenzenamine;5-Chloro-2-nitroaniline;3-Chloro-6-nitroaniline;2-Amino-4-chloro-1-nitrobenzene;2-Nitro-5-chloroaniline;2-Amino-4-chloronitrobenzene;3-Amino-4-nitrochlorobenzene;5-Chloro-2-nitrophenylamine;NSC 400866;1-Nitro-2-amino-4-chlorobenzene;5-Chlor-2-nitroanilin",
    "duplicated_cas_no": "",
    "SMILES": "N(=O)(=O)C1=C(N)C=C(Cl)C=C1",
    "meta_data": {
        "InChI": "InChI=1S/C6H5ClN2O2/c7-4-1-2-6(9(10)11)5(8)3-4/h1-3H,8H2",
        "InChIKey": null,
        "Canonical SMILES": "O=N(=O)C1=CC=C(Cl)C=C1N",
        "Molecular Formula": "C<sub>6</sub>H<sub>5</sub>ClN<sub>2</sub>O<sub>2</sub>",
        "Molecular Mass": "172.57",
        "Melting Point": "127.8 °C"
    }
}