{
    "cas_no": "104-73-4",
    "key_name": "Dodecylpyridinium bromide",
    "cn_name": "十二烷基溴化吡啶;",
    "alternate_name": "Pyridinium, 1-dodecyl-, bromide (1:1);Pyridinium, 1-dodecyl-, bromide;1-Dodecylpyridinium bromide;Dodecylpyridinium bromide;Isothan Q 4;Laurosept;Laurylpyridinium bromide;<em>N</em>-Laurylpyridinium bromide;DPB;<em>N</em>-Dodecylpyridinium bromide;1-Dodecylpyridin-1-iumbromide",
    "duplicated_cas_no": "101613-97-2",
    "SMILES": "C(CCCCCCCCCCC)[N+]=1C=CC=CC1.[Br-]",
    "meta_data": {
        "InChI": "InChI=1S/C17H30N.BrH/c1-2-3-4-5-6-7-8-9-10-12-15-18-16-13-11-14-17-18;/h11,13-14,16-17H,2-10,12,15H2,1H3;1H/q+1;/p-1",
        "InChIKey": null,
        "Canonical SMILES": "[Br-].C=1C=C[N+](=CC1)CCCCCCCCCCCC",
        "Molecular Formula": "C<sub>17</sub>H<sub>30</sub>N.Br",
        "Molecular Mass": "",
        "Melting Point": "89-90 °C"
    }
}