{
    "cas_no": "5003-48-5",
    "key_name": "Benorylate",
    "cn_name": "贝诺酯;扑炎痛;苯乐来;2-乙酰氧基苯甲酸-4-乙酰氨基苯酯;扑热息痛乙酰水杨酸酯;盐酸贝尼地平;",
    "alternate_name": "Benzoic acid, 2-(acetyloxy)-, 4-(acetylamino)phenyl ester;Salicylic acid acetate, ester with 4′-hydroxyacetanilide;Acetanilide, 4′-hydroxy-, salicylate (ester) acetate (ester);<em>p</em>-Acetamidophenyl acetylsalicylate;4-Acetamidophenyl 2-acetoxybenzoate;4-Acetaminophenyl 2-acetoxybenzoate;Benorylate;Aspirin acetaminophen ester;Fenasprate;Benoral;Acetylsalicylic acid paracetamol ester;<em>p</em>-<em>N</em>-Acetylaminophenyl acetylsalicylate;Benorilate;Win 11450;TO 125;Benortan;Quinexin;Salipran",
    "duplicated_cas_no": "",
    "SMILES": "C(OC1=CC=C(NC(C)=O)C=C1)(=O)C2=C(OC(C)=O)C=CC=C2",
    "meta_data": {
        "InChI": "InChI=1S/C17H15NO5/c1-11(19)18-13-7-9-14(10-8-13)23-17(21)15-5-3-4-6-16(15)22-12(2)20/h3-10H,1-2H3,(H,18,19)",
        "InChIKey": null,
        "Canonical SMILES": "O=C(OC1=CC=C(C=C1)NC(=O)C)C=2C=CC=CC2OC(=O)C",
        "Molecular Formula": "C<sub>17</sub>H<sub>15</sub>NO<sub>5</sub>",
        "Molecular Mass": "313.30",
        "Melting Point": "175 °C"
    }
}