{
    "cas_no": "2689-39-6",
    "key_name": "4-(2-Fluoro-4-nitrophenyl)morpholine",
    "cn_name": null,
    "alternate_name": "Morpholine, 4-(2-fluoro-4-nitrophenyl)-;4-(2-Fluoro-4-nitrophenyl)morpholine;<em>N</em>-(2-Fluoro-4-nitrophenyl)morpholine;3-Fluoro-4-morpholine-4-yl-nitrobenzene;3-Fluoro-4-morpholinonitrobenzene;3-Fluoro-4-morpholin-4-yl-1-nitrobenzene",
    "duplicated_cas_no": "",
    "SMILES": "FC1=C(C=CC(N(=O)=O)=C1)N2CCOCC2",
    "meta_data": {
        "InChI": "InChI=1S/C10H11FN2O3/c11-9-7-8(13(14)15)1-2-10(9)12-3-5-16-6-4-12/h1-2,7H,3-6H2",
        "InChIKey": null,
        "Canonical SMILES": "O=N(=O)C1=CC=C(C(F)=C1)N2CCOCC2",
        "Molecular Formula": "C<sub>10</sub>H<sub>11</sub>FN<sub>2</sub>O<sub>3</sub>",
        "Molecular Mass": "226.20",
        "Melting Point": "112-113 °C"
    }
}