{
    "cas_no": "115-77-5",
    "key_name": "Pentaerythritol",
    "cn_name": "季戊四醇;",
    "alternate_name": "1,3-Propanediol, 2,2-bis(hydroxymethyl)-;Pentaerythritol;2,2-Bis(hydroxymethyl)-1,3-propanediol;Auxinutril;Hercules P 6;Maxinutril;Monopentek;Penetek;Pentek;Tetra(hydroxymethyl)methane;Tetrakis(hydroxymethyl)methane;Tetramethylolmethane;PE 200;Metab-Auxil;Monopentaerythritol;THME;PET 020;Neulizer P;PE 200 (diol);NSC 8100;Pentarit S;Pentarit;Charmor PM 15;Flammex DPE;Charmor PM 40;CP 500G;Charmor PM;PER;Microlon 93;Penta Powder 325;P 100;P 100 (alcohol);Penta-R;Pentarit T;Voxtar M 100;Pentaerythrotol;2,2-Bis(hydroxymethyl)propane-1,3-diol;Pentarit TS;JLS Penta;Penta F 40;Charmor PT 40;JP-A 9301;Voxtar M 40;RN-P 15",
    "duplicated_cas_no": "75398-86-6;88201-29-0;1413934-54-9;1889241-87-5;2014337-56-3",
    "SMILES": "C(CO)(CO)(CO)CO",
    "meta_data": {
        "InChI": "InChI=1S/C5H12O4/c6-1-5(2-7,3-8)4-9/h6-9H,1-4H2",
        "InChIKey": null,
        "Canonical SMILES": "OCC(CO)(CO)CO",
        "Molecular Formula": "C<sub>5</sub>H<sub>12</sub>O<sub>4</sub>",
        "Molecular Mass": "136.15",
        "Boiling Point": "276 °C @ Press: 30 Torr",
        "Melting Point": "260 °C",
        "Density": "1.399 g/cm³ @ Temp: 25 °C"
    }
}