{
    "cas_no": "609-99-4",
    "key_name": "3,5-Dinitrosalicylic acid",
    "cn_name": "3,5-二硝基水杨酸;",
    "alternate_name": "Benzoic acid, 2-hydroxy-3,5-dinitro-;Salicylic acid, 3,5-dinitro-;2-Hydroxy-3,5-dinitrobenzoic acid;3,5-Dinitro-2-hydroxybenzoic acid;3,5-Dinitrosalicylic acid;DNS;NSC 181;TCI-D 0850",
    "duplicated_cas_no": "",
    "SMILES": "C(O)(=O)C1=C(O)C(N(=O)=O)=CC(N(=O)=O)=C1",
    "meta_data": {
        "InChI": "InChI=1S/C7H4N2O7/c10-6-4(7(11)12)1-3(8(13)14)2-5(6)9(15)16/h1-2,10H,(H,11,12)",
        "InChIKey": null,
        "Canonical SMILES": "O=C(O)C=1C=C(C=C(C1O)N(=O)=O)N(=O)=O",
        "Molecular Formula": "C<sub>7</sub>H<sub>4</sub>N<sub>2</sub>O<sub>7</sub>",
        "Molecular Mass": "228.12",
        "Melting Point": "170 °C"
    }
}