{
    "cas_no": "54303-30-9",
    "key_name": "Ethanamine, 2-(ethylthio)-, hydrochloride (1:1)",
    "cn_name": "2-(乙硫基)乙基胺盐酸盐;",
    "alternate_name": "Ethanamine, 2-(ethylthio)-, hydrochloride (1:1);Ethanamine, 2-(ethylthio)-, hydrochloride;Ethylamine, 2-(ethylthio)-, hydrochloride;2-Ethylthioethylamine hydrochloride;[2-(Ethylsulfanyl)ethyl]amine hydrochloride;2-(Ethylmercapto)ethylamine hydrochloride;2-Ethylthio-2-ethylamine hydrochloride;2-(Ethylthio)ethanamine hydrochloride;2-(Ethylsulfanyl)ethan-1-amine hydrochloride",
    "duplicated_cas_no": "",
    "SMILES": "C(SCC)CN.Cl",
    "meta_data": {
        "InChI": "InChI=1S/C4H11NS.ClH/c1-2-6-4-3-5;/h2-5H2,1H3;1H",
        "InChIKey": null,
        "Canonical SMILES": "Cl.S(CC)CCN",
        "Molecular Formula": "C<sub>4</sub>H<sub>11</sub>NS.ClH",
        "Molecular Mass": "",
        "Melting Point": "147 °C"
    }
}