{
    "cas_no": "20603-00-3",
    "key_name": "2-(Azepan-1-yl)ethanol",
    "cn_name": "N-(2-羟乙基)六亚甲二胺;",
    "alternate_name": "1<em>H</em>-Azepine-1-ethanol, hexahydro-;Hexahydro-1<em>H</em>-azepine-1-ethanol;1-Hexamethylenimineethanol;1-(2-Hydroxyethyl)homopiperidine;EGIS 5925;2-(Perhydroazepino)ethanol;2-(Azepan-1-yl)ethanol;NSC 50608;1-Azepaneethanol;2-(Azepan-1-yl)ethan-1-ol;2-(Hexamethyleneimino)ethanol;Hexahydro-1<em>H</em>-azepin-1-ethanol",
    "duplicated_cas_no": "",
    "SMILES": "C(CO)N1CCCCCC1",
    "meta_data": {
        "InChI": "InChI=1S/C8H17NO/c10-8-7-9-5-3-1-2-4-6-9/h10H,1-8H2",
        "InChIKey": null,
        "Canonical SMILES": "OCCN1CCCCCC1",
        "Molecular Formula": "C<sub>8</sub>H<sub>17</sub>NO",
        "Molecular Mass": "143.23",
        "Boiling Point": "111 °C @ Press: 23 Torr",
        "Density": "0.9733 g/cm³ @ Temp: 20 °C"
    }
}