{
    "cas_no": "1830-32-6",
    "key_name": "Azintamide",
    "cn_name": null,
    "alternate_name": "Acetamide, 2-[(6-chloro-3-pyridazinyl)thio]-<em>N</em>,<em>N</em>-diethyl-;2-[(6-Chloro-3-pyridazinyl)thio]-<em>N</em>,<em>N</em>-diethylacetamide;ST 9067;Azintamide;<em>N</em>,<em>N</em>-Diethyl-2-(3-chloro-6-pyridazinylthio)acetamide;Oragallin;<em>N</em>,<em>N</em>-Diethyl(6-chloropyridazin-3-ylthio)acetamide;Azinthiamide;Bilipurum;Biloral;Colerin;Oragal;Oragalin;Oragallin purum;NSC 291837;2-(6-Chloro-pyridazin-3-ylsulfanyl)-<em>N</em>,<em>N</em>-diethyl-acetamide",
    "duplicated_cas_no": "",
    "SMILES": "S(CC(N(CC)CC)=O)C1=CC=C(Cl)N=N1",
    "meta_data": {
        "InChI": "InChI=1S/C10H14ClN3OS/c1-3-14(4-2)10(15)7-16-9-6-5-8(11)12-13-9/h5-6H,3-4,7H2,1-2H3",
        "InChIKey": null,
        "Canonical SMILES": "O=C(N(CC)CC)CSC1=NN=C(Cl)C=C1",
        "Molecular Formula": "C<sub>10</sub>H<sub>14</sub>ClN<sub>3</sub>OS",
        "Molecular Mass": "259.76",
        "Melting Point": "97 °C"
    }
}