{
    "cas_no": "299-26-3",
    "key_name": "(±)-α-Methyltryptamine",
    "cn_name": "DL-α-甲基色胺;DL-ALPHA-甲基色胺;",
    "alternate_name": "1<em>H</em>-Indole-3-ethanamine, α-methyl-;Indole, 3-(2-aminopropyl)-;α-Methyl-1<em>H</em>-indole-3-ethanamine;U 14;164 E;Ro 3-0926;3-(2-Aminopropyl)indole;α-Methyltryptamine;α-Methyl-3-indoleethanamine;(±)-α-Methyltryptamine;NSC 97069;2-(1<em>H</em>-Indol-3-yl)-1-methylethylamine;3-(2-Aminopropyl)-1<em>H</em>-indole;AMT;AMT (α-methyltryptamine);<span class=\"text-smallcaps\">DL</span>-α-Methyltryptamine;1-(1<em>H</em>-Indol-3-yl)propan-2-amine",
    "duplicated_cas_no": "304-54-1",
    "SMILES": "C(C(C)N)C=1C=2C(NC1)=CC=CC2",
    "meta_data": {
        "InChI": "InChI=1S/C11H14N2/c1-8(12)6-9-7-13-11-5-3-2-4-10(9)11/h2-5,7-8,13H,6,12H2,1H3",
        "InChIKey": null,
        "Canonical SMILES": "NC(C)CC1=CNC=2C=CC=CC21",
        "Molecular Formula": "C<sub>11</sub>H<sub>14</sub>N<sub>2</sub>",
        "Molecular Mass": "174.24",
        "Boiling Point": "137 °C @ Press: 0.3 Torr",
        "Melting Point": "97-98 °C"
    }
}