{
    "cas_no": "1875-89-4",
    "key_name": "3-Methylbenzeneethanol",
    "cn_name": "3-甲基苯乙醇;",
    "alternate_name": "Benzeneethanol, 3-methyl-;Phenethyl alcohol, <em>m</em>-methyl-;3-Methylbenzeneethanol;3-Methylphenethyl alcohol;2-(3-Methylphenyl)ethanol;2-(m-Tolyl)ethanol;2-(3-Methylphenyl)-1-ethanol;2-(<em>m</em>-Tolyl)ethanol",
    "duplicated_cas_no": "",
    "SMILES": "C(CO)C1=CC(C)=CC=C1",
    "meta_data": {
        "InChI": "InChI=1S/C9H12O/c1-8-3-2-4-9(7-8)5-6-10/h2-4,7,10H,5-6H2,1H3",
        "InChIKey": null,
        "Canonical SMILES": "OCCC=1C=CC=C(C1)C",
        "Molecular Formula": "C<sub>9</sub>H<sub>12</sub>O",
        "Molecular Mass": "136.19",
        "Boiling Point": "112-113 °C @ Press: 10 Torr",
        "Density": "1.001 g/cm³ @ Temp: 20 °C"
    }
}