{
    "cas_no": "7778-54-3",
    "key_name": "Calcium hypochlorite",
    "cn_name": "次氯酸钙;",
    "alternate_name": "Hypochlorous acid, calcium salt (2:1);Hypochlorous acid, calcium salt;Calcium hypochlorite;Calcium oxychloride;Lime chloride;B-K Powder;Chloride of lime;Chlorinated lime;Caporit;Losantin;HTH VAN;Chemichlon G;HTH (bleaching agent);Solvox KS;Eusol BPC;T-Eusol;Chloro lime chemical;Bleaching powder;Ca(ClO)<sub>2</sub>;Nisso Hi-chlon LC;Nisso Hi-Chlon;Perfect PA;Super Zappit;Zappit;calcium di(oxychloride);Toyokuron PT-P;Toyoclon PT-P;Toyokuron-PTGIII;Toyokuron;Toyoclon PTGIII",
    "duplicated_cas_no": "1332-17-8;8031-48-9;56172-56-6;104381-95-5;129904-51-4;1296807-06-1",
    "SMILES": "ClO.[Ca]",
    "meta_data": {
        "InChI": "InChI=1S/Ca.ClHO/c;1-2/h;2H",
        "InChIKey": null,
        "Canonical SMILES": "[Ca].ClO",
        "Molecular Formula": "Ca.2ClHO",
        "Molecular Mass": "",
        "Melting Point": "100 °C",
        "Density": "2.35 g/cm³"
    }
}