{
    "cas_no": "2745-22-4",
    "key_name": "α-(Aminomethyl)-2-furanmethanol",
    "cn_name": null,
    "alternate_name": "2-Furanmethanol, α-(aminomethyl)-;Furfuryl alcohol, α-(aminomethyl)-;α-(Aminomethyl)-2-furanmethanol;2-Amino-1-(2-furyl)ethanol;2-Amino-1-(furan-2-yl)ethan-1-ol;2-(1-Hydroxy-2-aminoethyl)-furan;2-Amino-1-(furan-2-yl)ethanol",
    "duplicated_cas_no": "74497-31-7",
    "SMILES": "C(CN)(O)C1=CC=CO1",
    "meta_data": {
        "InChI": "InChI=1S/C6H9NO2/c7-4-5(8)6-2-1-3-9-6/h1-3,5,8H,4,7H2",
        "InChIKey": null,
        "Canonical SMILES": "OC(C=1OC=CC1)CN",
        "Molecular Formula": "C<sub>6</sub>H<sub>9</sub>NO<sub>2</sub>",
        "Molecular Mass": "127.14",
        "Boiling Point": "108 °C @ Press: 1 Torr",
        "Melting Point": "87 °C"
    }
}