{
    "cas_no": "3518-83-0",
    "key_name": "1-Ethyl-4-piperidinol",
    "cn_name": "N-乙基-4-羟基哌啶;",
    "alternate_name": "4-Piperidinol, 1-ethyl-;1-Ethyl-4-piperidinol;1-Ethyl-4-hydroxypiperidine;<em>N</em>-Ethyl-4-hydroxypiperidine",
    "duplicated_cas_no": "",
    "SMILES": "C(C)N1CCC(O)CC1",
    "meta_data": {
        "InChI": "InChI=1S/C7H15NO/c1-2-8-5-3-7(9)4-6-8/h7,9H,2-6H2,1H3",
        "InChIKey": null,
        "Canonical SMILES": "OC1CCN(CC)CC1",
        "Molecular Formula": "C<sub>7</sub>H<sub>15</sub>NO",
        "Molecular Mass": "129.20",
        "Boiling Point": "108-109 °C @ Press: 20-21 Torr",
        "Density": "0.9529 g/cm³ @ Temp: 25 °C"
    }
}