{
    "cas_no": "942-06-3",
    "key_name": "4,5-Dichlorophthalic anhydride",
    "cn_name": null,
    "alternate_name": "1,3-Isobenzofurandione, 5,6-dichloro-;Phthalic anhydride, 4,5-dichloro-;5,6-Dichloro-1,3-isobenzofurandione;4,5-Dichlorophthalic anhydride;5,6-Dichloro-2-benzofuran-1,3-dione",
    "duplicated_cas_no": "",
    "SMILES": "O=C1C=2C(C(=O)O1)=CC(Cl)=C(Cl)C2",
    "meta_data": {
        "InChI": "InChI=1S/C8H2Cl2O3/c9-5-1-3-4(2-6(5)10)8(12)13-7(3)11/h1-2H",
        "InChIKey": null,
        "Canonical SMILES": "O=C1OC(=O)C2=CC(Cl)=C(Cl)C=C12",
        "Molecular Formula": "C<sub>8</sub>H<sub>2</sub>Cl<sub>2</sub>O<sub>3</sub>",
        "Molecular Mass": "217.01",
        "Boiling Point": "313 °C",
        "Melting Point": "188 °C"
    }
}