{
    "cas_no": "19403-92-0",
    "key_name": "2,4,6-Triiodoresorcinol",
    "cn_name": "2,4,6-三碘间苯二酚;2,4,6-三碘-1,3-苯二酚;",
    "alternate_name": "1,3-Benzenediol, 2,4,6-triiodo-;Resorcinol, 2,4,6-triiodo-;2,4,6-Triiodo-1,3-benzenediol;2,4,6-Triiodoresorcinol;Riodoxol",
    "duplicated_cas_no": "",
    "SMILES": "OC1=C(I)C(O)=C(I)C=C1I",
    "meta_data": {
        "InChI": "InChI=1S/C6H3I3O2/c7-2-1-3(8)6(11)4(9)5(2)10/h1,10-11H",
        "InChIKey": null,
        "Canonical SMILES": "IC=1C=C(I)C(O)=C(I)C1O",
        "Molecular Formula": "C<sub>6</sub>H<sub>3</sub>I<sub>3</sub>O<sub>2</sub>",
        "Molecular Mass": "487.80",
        "Melting Point": "144 °C"
    }
}