{
    "cas_no": "4808-30-4",
    "key_name": "Tributyltin sulfide",
    "cn_name": "双(三丁基锡)硫醚;双(三丁基锡)硫醚;",
    "alternate_name": "Distannathiane, 1,1,1,3,3,3-hexabutyl-;Distannathiane, hexabutyl-;Distannthiane, hexabutyl-;Bis(tributyltin) sulfide;Tin, thiobis[tributyl-;1,1,1,3,3,3-Hexabutyldistannathiane;Tributyltin sulfide;Bis(tri-<em>n</em>-butyltin) sulfide;Bis(tributylstannyl) sulfide;Harpp's reagent;Reagents, Harpp's",
    "duplicated_cas_no": "",
    "SMILES": "[Sn](S[Sn](CCCC)(CCCC)CCCC)(CCCC)(CCCC)CCCC",
    "meta_data": {
        "InChI": "InChI=1S/6C4H9.S.2Sn/c6*1-3-4-2;;;/h6*1,3-4H2,2H3;;;",
        "InChIKey": null,
        "Canonical SMILES": "S([Sn](CCCC)(CCCC)CCCC)[Sn](CCCC)(CCCC)CCCC",
        "Molecular Formula": "C<sub>24</sub>H<sub>54</sub>SSn<sub>2</sub>",
        "Molecular Mass": "612.17",
        "Boiling Point": "208 °C @ Press: 1 Torr",
        "Density": "1.197 g/cm³ @ Temp: 20 °C"
    }
}