{
    "cas_no": "38821-53-3",
    "key_name": "Cephradine",
    "cn_name": "头孢拉定;(6R,7R)-7-[(R)-2-氨基-2-(1,4-环己二烯基)乙酰氨基]-3-甲基-8-氧代-5-硫杂-1-氮杂双环[4.2.0]辛-;",
    "alternate_name": "5-Thia-1-azabicyclo[4.2.0]oct-2-ene-2-carboxylic acid, 7-[[(2<em>R</em>)-2-amino-2-(1,4-cyclohexadien-1-yl)acetyl]amino]-3-methyl-8-oxo-, (6<em>R</em>,7<em>R</em>)-;5-Thia-1-azabicyclo[4.2.0]oct-2-ene-2-carboxylic acid, 7-[(amino-1,4-cyclohexadien-1-ylacetyl)amino]-3-methyl-8-oxo-, [6<em>R</em>-[6α,7β(<em>R</em>*)]]-;5-Thia-1-azabicyclo[4.2.0]oct-2-ene-2-carboxylic acid, 7-[[(2<em>R</em>)-amino-1,4-cyclohexadien-1-ylacetyl]amino]-3-methyl-8-oxo-, (6<em>R</em>,7<em>R</em>)-;(6<em>R</em>,7<em>R</em>)-7-[[(2<em>R</em>)-2-Amino-2-(1,4-cyclohexadien-1-yl)acetyl]amino]-3-methyl-8-oxo-5-thia-1-azabicyclo[4.2.0]oct-2-ene-2-carboxylic acid;Cephradin;Cefradine;Cephradine;7-[<span class=\"text-smallcaps\">D</span>-α-Amino-(1,4-cyclohexadienyl)acetamide]-3-desacetoxycephalosphoranic acid;Sefril;Velosef;SQ 11436;Eskacef;Cefro;Cefrag;Cesporan;Dimacef;Ecosporina;Anspor;Celex;Cefradex;Lisacef;Lenzacef;Velocef;Samedrin;Megacef;Easkacef;Cefradin;MeSH ID: D002515",
    "duplicated_cas_no": "",
    "SMILES": "O=C1N2[C@@]([C@@H]1NC([C@H](N)C=3CC=CCC3)=O)(SCC(C)=C2C(O)=O)[H]",
    "meta_data": {
        "InChI": "InChI=1S/C16H19N3O4S/c1-8-7-24-15-11(14(21)19(15)12(8)16(22)23)18-13(20)10(17)9-5-3-2-4-6-9/h2-3,6,10-11,15H,4-5,7,17H2,1H3,(H,18,20)(H,22,23)/t10-,11-,15-/m1/s1",
        "InChIKey": null,
        "Canonical SMILES": "O=C(O)C1=C(C)CSC2N1C(=O)C2NC(=O)C(N)C3=CCC=CC3",
        "Molecular Formula": "C<sub>16</sub>H<sub>19</sub>N<sub>3</sub>O<sub>4</sub>S",
        "Molecular Mass": "349.40",
        "Melting Point": "140 °C"
    }
}