{
    "cas_no": "1590-08-5",
    "key_name": "2-Methyl-1-tetralone",
    "cn_name": "2-甲基-3,4-二氢-2H-1-萘酮;2-甲基-1-四氢萘酮;",
    "alternate_name": "1(2<em>H</em>)-Naphthalenone, 3,4-dihydro-2-methyl-;3,4-Dihydro-2-methyl-1(2<em>H</em>)-naphthalenone;2-Methyl-1-tetralone;1-Oxo-2-methyl-1,2,3,4-tetrahydronaphthalene;2-Methyl-α-tetralone;2-Methyl-3,4-dihydro-2<em>H</em>-naphthalen-1-one;2-Methyl-1,2,3,4-tetrahydronaphthalen-1-one;2-Methyl-3,4-dihydronaphthalen-1(2<em>H</em>)-one",
    "duplicated_cas_no": "65941-82-4",
    "SMILES": "O=C1C=2C(CCC1C)=CC=CC2",
    "meta_data": {
        "InChI": "InChI=1S/C11H12O/c1-8-6-7-9-4-2-3-5-10(9)11(8)12/h2-5,8H,6-7H2,1H3",
        "InChIKey": null,
        "Canonical SMILES": "O=C1C=2C=CC=CC2CCC1C",
        "Molecular Formula": "C<sub>11</sub>H<sub>12</sub>O",
        "Molecular Mass": "160.21",
        "Boiling Point": "135-137 °C @ Press: 16 Torr",
        "Melting Point": "15 °C"
    }
}