{
    "cas_no": "86479-06-3",
    "key_name": "Hexaflumuron",
    "cn_name": "除虫脲;1-[3,5-二氯-4-(1,1,2,2-四氟乙氧基)苯基]-3-(2,6-二氟苯甲酰基)脲;",
    "alternate_name": "Benzamide, <em>N</em>-[[[3,5-dichloro-4-(1,1,2,2-tetrafluoroethoxy)phenyl]amino]carbonyl]-2,6-difluoro-;<em>N</em>-[[[3,5-Dichloro-4-(1,1,2,2-tetrafluoroethoxy)phenyl]amino]carbonyl]-2,6-difluorobenzamide;XRD 473;AI 3-29832;Hexafluron;Hexaflumuron;OMS 3031;Sonet;Consult;Consult 100EC;Cosult;Dowco 473",
    "duplicated_cas_no": "190605-87-9",
    "SMILES": "C(NC(NC1=CC(Cl)=C(OC(C(F)F)(F)F)C(Cl)=C1)=O)(=O)C2=C(F)C=CC=C2F",
    "meta_data": {
        "InChI": "InChI=1S/C16H8Cl2F6N2O3/c17-7-4-6(5-8(18)12(7)29-16(23,24)14(21)22)25-15(28)26-13(27)11-9(19)2-1-3-10(11)20/h1-5,14H,(H2,25,26,27,28)",
        "InChIKey": null,
        "Canonical SMILES": "O=C(NC(=O)C=1C(F)=CC=CC1F)NC2=CC(Cl)=C(OC(F)(F)C(F)F)C(Cl)=C2",
        "Molecular Formula": "C<sub>16</sub>H<sub>8</sub>Cl<sub>2</sub>F<sub>6</sub>N<sub>2</sub>O<sub>3</sub>",
        "Molecular Mass": "461.14",
        "Melting Point": "202-205 °C",
        "Density": "1.7 g/cm³"
    }
}