{
    "cas_no": "5147-00-2",
    "key_name": "<em>O</em>-Acetyl-<span class=\"text-smallcaps\">L</span>-serine",
    "cn_name": null,
    "alternate_name": "<span class=\"text-smallcaps\">L</span>-Serine, <em>O</em>-acetyl-;Serine, acetate (ester), <span class=\"text-smallcaps\">L</span>-;<span class=\"text-smallcaps\">L</span>-Serine, acetate (ester);<em>O</em>-Acetyl-<span class=\"text-smallcaps\">L</span>-serine;<em>O</em>-Acetylserine;NSC 226230;(<em>S</em>)-3-Acetoxy-2-aminopropanoic acid",
    "duplicated_cas_no": "",
    "SMILES": "[C@H](COC(C)=O)(C(O)=O)N",
    "meta_data": {
        "InChI": "InChI=1S/C5H9NO4/c1-3(7)10-2-4(6)5(8)9/h4H,2,6H2,1H3,(H,8,9)/t4-/m0/s1",
        "InChIKey": null,
        "Canonical SMILES": "O=C(O)C(N)COC(=O)C",
        "Molecular Formula": "C<sub>5</sub>H<sub>9</sub>NO<sub>4</sub>",
        "Molecular Mass": "147.13",
        "Melting Point": "151.5-151.8 °C"
    }
}