{
    "cas_no": "6027-23-2",
    "key_name": "Hordenine hydrochloride",
    "cn_name": "大麦芽碱盐酸盐;4-(2-二甲基氨基乙基)苯酚盐酸盐;",
    "alternate_name": "Phenol, 4-[2-(dimethylamino)ethyl]-, hydrochloride (1:1);Phenol, <em>p</em>-[2-(dimethylamino)ethyl]-, hydrochloride;Phenol, 4-[2-(dimethylamino)ethyl]-, hydrochloride;Hordenine hydrochloride;<em>N</em>,<em>N</em>-Dimethyltyramine hydrochloride",
    "duplicated_cas_no": "",
    "SMILES": "C(CN(C)C)C1=CC=C(O)C=C1.Cl",
    "meta_data": {
        "InChI": "InChI=1S/C10H15NO.ClH/c1-11(2)8-7-9-3-5-10(12)6-4-9;/h3-6,12H,7-8H2,1-2H3;1H",
        "InChIKey": null,
        "Canonical SMILES": "Cl.OC1=CC=C(C=C1)CCN(C)C",
        "Molecular Formula": "C<sub>10</sub>H<sub>15</sub>NO.ClH",
        "Molecular Mass": "",
        "Melting Point": "177-181 °C"
    }
}