{
    "cas_no": "7783-48-4",
    "key_name": "Strontium fluoride",
    "cn_name": "氟化锶;二氟化锶;",
    "alternate_name": "Strontium fluoride (SrF<sub>2</sub>);Strontium fluoride;Strontium difluoride;Strontium difluoride (SrF<sub>2</sub>)",
    "duplicated_cas_no": "75013-57-9;1535165-58-2",
    "SMILES": "[Sr](F)F",
    "meta_data": {
        "InChI": "InChI=1S/2FH.Sr/h2*1H;/q;;+2/p-2",
        "InChIKey": null,
        "Canonical SMILES": "F[Sr]F",
        "Molecular Formula": "F<sub>2</sub>Sr",
        "Molecular Mass": "",
        "Boiling Point": "2460 °C",
        "Melting Point": "1400 °C",
        "Density": "4.286 g/cm³ @ Temp: 25 °C"
    }
}