{
    "cas_no": "2919-23-5",
    "key_name": "Cyclobutanol",
    "cn_name": "环丁醇;",
    "alternate_name": "Cyclobutanol;Cyclobutyl hydroxide;Hydroxycyclobutane;Cyclobutyl alcohol",
    "duplicated_cas_no": "",
    "SMILES": "OC1CCC1",
    "meta_data": {
        "InChI": "InChI=1S/C4H8O/c5-4-2-1-3-4/h4-5H,1-3H2",
        "InChIKey": null,
        "Canonical SMILES": "OC1CCC1",
        "Molecular Formula": "C<sub>4</sub>H<sub>8</sub>O",
        "Molecular Mass": "72.11",
        "Boiling Point": "124 °C",
        "Density": "0.8995 g/cm³ @ Temp: 17.5 °C"
    }
}