{
    "cas_no": "2882-20-4",
    "key_name": "2-Methyl-3-(methylthio)pyrazine",
    "cn_name": null,
    "alternate_name": "Pyrazine, 2-methyl-3-(methylthio)-;2-Methyl-3-(methylthio)pyrazine;2-Methyl-3-methylmercaptopyrazine;2-Methylthio-3-methylpyrazine;3-Methyl-2-methylthiopyrazine;2-Methylmercapto-3-methylpyrazine;NSC 222757;2-Methyl-3-methylsulfanylpyrazine;2-Methyl-3-(methylsulfanyl)pyrazine",
    "duplicated_cas_no": "",
    "SMILES": "S(C)C=1C(C)=NC=CN1",
    "meta_data": {
        "InChI": "InChI=1S/C6H8N2S/c1-5-6(9-2)8-4-3-7-5/h3-4H,1-2H3",
        "InChIKey": null,
        "Canonical SMILES": "N=1C=CN=C(C1SC)C",
        "Molecular Formula": "C<sub>6</sub>H<sub>8</sub>N<sub>2</sub>S",
        "Molecular Mass": "140.21",
        "Boiling Point": "84-88 °C @ Press: 10 Torr"
    }
}