{
    "cas_no": "7773-06-0",
    "key_name": "Ammonium sulfamate",
    "cn_name": "氨基磺酸铵;",
    "alternate_name": "Sulfamic acid, ammonium salt (1:1);Sulfamic acid, monoammonium salt;Ammat;Ammate X;Ammonium amidosulphate;Ammonium sulfamate;Ammonium sulphamate;AMS;Ammonium amidosulfonate;Ammonium amidosulfate;AMS (salt);Fyran 206K;Ikurin;Monoammonium sulfamate;Ammonium aminosulfonate;Feliderm K;Ammate;Fyran J 3;Bemiflame PF",
    "duplicated_cas_no": "",
    "SMILES": "S(N)(=O)(=O)O.N",
    "meta_data": {
        "InChI": "InChI=1S/H3NO3S.H3N/c1-5(2,3)4;/h(H3,1,2,3,4);1H3",
        "InChIKey": null,
        "Canonical SMILES": "O=S(=O)(O)N.N",
        "Molecular Formula": "H<sub>3</sub>NO<sub>3</sub>S.H<sub>3</sub>N",
        "Molecular Mass": "",
        "Boiling Point": "160 °C",
        "Melting Point": "131 °C"
    }
}