{
    "cas_no": "14509-66-1",
    "key_name": "7,8-Dihydroimidazo[1,5-<em>c</em>]pyrimidin-5(6<em>H</em>)-one",
    "cn_name": null,
    "alternate_name": "Imidazo[1,5-<em>c</em>]pyrimidin-5(6<em>H</em>)-one, 7,8-dihydro-;7,8-Dihydroimidazo[1,5-<em>c</em>]pyrimidin-5(6<em>H</em>)-one;5,6,7,8-Tetrahydro-5-oxoimidazo[1,5-<em>c</em>]pyrimidine;5,6,7,8-Tetrahydroimidazo[1,5-<em>c</em>]pyrimidin-5-one;7,8-Dihydroimidazo-[1,5-c]-pyrimidin-5(6<em>H</em>)-one;7,8-Dihydro-6<em>H</em>-imidazo[5,1-<em>f</em>]pyrimidin-5-one",
    "duplicated_cas_no": "",
    "SMILES": "O=C1N2C(CCN1)=CN=C2",
    "meta_data": {
        "InChI": "InChI=1S/C6H7N3O/c10-6-8-2-1-5-3-7-4-9(5)6/h3-4H,1-2H2,(H,8,10)",
        "InChIKey": null,
        "Canonical SMILES": "O=C1NCCC2=CN=CN12",
        "Molecular Formula": "C<sub>6</sub>H<sub>7</sub>N<sub>3</sub>O",
        "Molecular Mass": "137.14",
        "Melting Point": "218-219 °C"
    }
}