{
    "cas_no": "3469-69-0",
    "key_name": "4-Iodopyrazole",
    "cn_name": "4-碘吡唑;",
    "alternate_name": "1<em>H</em>-Pyrazole, 4-iodo-;Pyrazole, 4-iodo-;4-Iodo-1<em>H</em>-pyrazole;4-Iodopyrazole;4-Iodo-1<em>H</em>-pyrazol",
    "duplicated_cas_no": "",
    "SMILES": "IC=1C=NNC1",
    "meta_data": {
        "InChI": "InChI=1S/C3H3IN2/c4-3-1-5-6-2-3/h1-2H,(H,5,6)",
        "InChIKey": null,
        "Canonical SMILES": "IC=1C=NNC1",
        "Molecular Formula": "C<sub>3</sub>H<sub>3</sub>IN<sub>2</sub>",
        "Molecular Mass": "193.97",
        "Melting Point": "108-110 °C"
    }
}