{
    "cas_no": "51154-96-2",
    "key_name": "Massoia lactone",
    "cn_name": "5-羟基-2-癸烯酸-δ-内酯;",
    "alternate_name": "2<em>H</em>-Pyran-2-one, 5,6-dihydro-6-pentyl-, (6<em>R</em>)-;2<em>H</em>-Pyran-2-one, 5,6-dihydro-6-pentyl-, (<em>R</em>)-;(6<em>R</em>)-5,6-Dihydro-6-pentyl-2<em>H</em>-pyran-2-one;Massoia lactone;(<em>R</em>)-(-)-Massoialactone;Massoilactone;(-)-Massoialactone;(-)-(6<em>R</em>)-Massoialactone;(6<em>R</em>)-(-)-Massoialactone;(-)-Massoja decalactone;(-)-Massoilactone;Massoya lactone;(<em>R</em>)-6-Pentyl-5,6-dihydro-2<em>H</em>-pyran-2-one",
    "duplicated_cas_no": "38733-05-0",
    "SMILES": "C(CCCC)[C@H]1OC(=O)C=CC1",
    "meta_data": {
        "InChI": "InChI=1S/C10H16O2/c1-2-3-4-6-9-7-5-8-10(11)12-9/h5,8-9H,2-4,6-7H2,1H3/t9-/m1/s1",
        "InChIKey": null,
        "Canonical SMILES": "O=C1OC(CC=C1)CCCCC",
        "Molecular Formula": "C<sub>10</sub>H<sub>16</sub>O<sub>2</sub>",
        "Molecular Mass": "168.23",
        "Boiling Point": "103-104 °C @ Press: 0.5 Torr",
        "Density": "0.9800 g/cm³ @ Temp: 21 °C"
    }
}