{
    "cas_no": "613-50-3",
    "key_name": "6-Nitroquinoline",
    "cn_name": "6-硝基喹啉;",
    "alternate_name": "Quinoline, 6-nitro-;6-Nitroquinoline;NSC 4141",
    "duplicated_cas_no": "",
    "SMILES": "N(=O)(=O)C1=CC2=C(C=C1)N=CC=C2",
    "meta_data": {
        "InChI": "InChI=1S/C9H6N2O2/c12-11(13)8-3-4-9-7(6-8)2-1-5-10-9/h1-6H",
        "InChIKey": null,
        "Canonical SMILES": "O=N(=O)C1=CC=C2N=CC=CC2=C1",
        "Molecular Formula": "C<sub>9</sub>H<sub>6</sub>N<sub>2</sub>O<sub>2</sub>",
        "Molecular Mass": "174.16",
        "Boiling Point": "170 °C",
        "Melting Point": "153.5 °C"
    }
}