{
    "cas_no": "628-81-9",
    "key_name": "Butyl ethyl ether",
    "cn_name": "乙基丁基醚;1-乙氧基丁烷;乙氧基丁烷;乙基正丁基醚;乙丁醚;",
    "alternate_name": "Butane, 1-ethoxy-;Ether, butyl ethyl;1-Ethoxybutane;Butyl ethyl ether;Ethyl butyl ether;Ethyl <em>n</em>-butyl ether;<em>n</em>-Butyl ethyl ether",
    "duplicated_cas_no": "",
    "SMILES": "C(CCC)OCC",
    "meta_data": {
        "InChI": "InChI=1S/C6H14O/c1-3-5-6-7-4-2/h3-6H2,1-2H3",
        "InChIKey": null,
        "Canonical SMILES": "O(CC)CCCC",
        "Molecular Formula": "C<sub>6</sub>H<sub>14</sub>O",
        "Molecular Mass": "102.17",
        "Boiling Point": "92.3 °C",
        "Melting Point": "-124 °C"
    }
}