{
    "cas_no": "923-27-3",
    "key_name": "<span class=\"text-smallcaps\">D</span>-Lysine",
    "cn_name": "D-赖氨酸;",
    "alternate_name": "<span class=\"text-smallcaps\">D</span>-Lysine;Lysine, <span class=\"text-smallcaps\">D</span>-;(<em>R</em>)-Lysine;(R)-2,6-Diaminohexanoic acid;(2R)-2,6-Diaminohexanoic acid",
    "duplicated_cas_no": "134309-37-8",
    "SMILES": "[C@@H](CCCCN)(C(O)=O)N",
    "meta_data": {
        "InChI": "InChI=1S/C6H14N2O2/c7-4-2-1-3-5(8)6(9)10/h5H,1-4,7-8H2,(H,9,10)/t5-/m1/s1",
        "InChIKey": null,
        "Canonical SMILES": "O=C(O)C(N)CCCCN",
        "Molecular Formula": "C<sub>6</sub>H<sub>14</sub>N<sub>2</sub>O<sub>2</sub>",
        "Molecular Mass": "146.19",
        "Melting Point": "224 °C"
    }
}