{
    "cas_no": "21651-19-4",
    "key_name": "Tin oxide (SnO)",
    "cn_name": "氧化亚锡;一氧化锡;氧化锡(II);",
    "alternate_name": "Tin oxide (SnO);Stannous oxide;Tin(II) oxide;Tin monoxide;Tin(2+) oxide;Tin oxide (Sn<sub>2</sub>O<sub>2</sub>);Ceramace C 10;Tegokat 188",
    "duplicated_cas_no": "1314-10-9;12396-93-9;12534-17-7;405230-74-2",
    "SMILES": "O=[Sn]",
    "meta_data": {
        "InChI": "InChI=1S/O.Sn",
        "InChIKey": null,
        "Canonical SMILES": "O=[Sn]",
        "Molecular Formula": "OSn",
        "Molecular Mass": "",
        "Melting Point": "1080 °C",
        "Density": "6.45 g/cm³"
    }
}