{
    "cas_no": "4030-18-6",
    "key_name": "<em>N</em>-Acetylpyrrolidine",
    "cn_name": "1-乙酰基吡咯;",
    "alternate_name": "Ethanone, 1-(1-pyrrolidinyl)-;Pyrrolidine, 1-acetyl-;1-(1-Pyrrolidinyl)ethanone;<em>N</em>-Acetylpyrrolidine;1-Acetylpyrrolidine;1-(Pyrrolidin-1-yl)ethan-1-one;Acetylpyrrolidine",
    "duplicated_cas_no": "",
    "SMILES": "C(C)(=O)N1CCCC1",
    "meta_data": {
        "InChI": "InChI=1S/C6H11NO/c1-6(8)7-4-2-3-5-7/h2-5H2,1H3",
        "InChIKey": null,
        "Canonical SMILES": "O=C(N1CCCC1)C",
        "Molecular Formula": "C<sub>6</sub>H<sub>11</sub>NO",
        "Molecular Mass": "113.16",
        "Boiling Point": "80 °C @ Press: 10 Torr"
    }
}