{
    "cas_no": "39910-98-0",
    "key_name": "4′-Morpholinoacetophenone",
    "cn_name": null,
    "alternate_name": "Ethanone, 1-[4-(4-morpholinyl)phenyl]-;Acetophenone, 4′-morpholino-;1-[4-(4-Morpholinyl)phenyl]ethanone;4′-Morpholinoacetophenone;<em>N</em>-(4-Acetylphenyl)morpholine;4-(4-Morpholinyl)acetophenone;4′-Morpholin-4-ylacetophenone;1-(4-Morpholinophenyl)ethanone;4-(4-Acetylphenyl)morpholine;1-(4-Morpholinophenyl)ethan-1-one;1-[4-(Morpholin-4-yl)phenyl]ethan-1-one",
    "duplicated_cas_no": "",
    "SMILES": "C(C)(=O)C1=CC=C(C=C1)N2CCOCC2",
    "meta_data": {
        "InChI": "InChI=1S/C12H15NO2/c1-10(14)11-2-4-12(5-3-11)13-6-8-15-9-7-13/h2-5H,6-9H2,1H3",
        "InChIKey": null,
        "Canonical SMILES": "O=C(C1=CC=C(C=C1)N2CCOCC2)C",
        "Molecular Formula": "C<sub>12</sub>H<sub>15</sub>NO<sub>2</sub>",
        "Molecular Mass": "205.25",
        "Melting Point": "95-96 °C"
    }
}