{
    "cas_no": "85-42-7",
    "key_name": "Hexahydrophthalic anhydride",
    "cn_name": "六氢邻苯二甲酸酐;六氢苯酐;",
    "alternate_name": "1,3-Isobenzofurandione, hexahydro-;1,2-Cyclohexanedicarboxylic anhydride;Hexahydro-1,3-isobenzofurandione;Hexahydrophthalic anhydride;Araldite HT 907;Lekutherm Hardener H;HHPA;Hexahydrophthalic acid anhydride;1,2-Cyclohexanedicarboxylic acid anhydride;Rikacid HH;Epilox H 11-01;Araldite HT 904;Rikacid HH-A;Araldite HY 907;Cyclohexanedicarboxylic anhydride;Rutapox HX;Rikacid HHPA;Araldite HY 925;Araldite Hardener HY 925;HY 925;Rutadur AG;NSC 8622;Rikacid MH 700E;MH 700E;HT 907;EP 400B;Aradur HY 925;Hexahydro-2-benzofuran-1,3-dione;Cyclohexane-1,2-dicarboxylic acid anhydride;Rikacid MH 600;Hardener HY 925;HV 136;MY 1832;B 1008;HT 5535CI",
    "duplicated_cas_no": "95327-28-9;102483-85-2;109265-67-0;117276-22-9",
    "SMILES": "O=C1C2C(C(=O)O1)CCCC2",
    "meta_data": {
        "InChI": "InChI=1S/C8H10O3/c9-7-5-3-1-2-4-6(5)8(10)11-7/h5-6H,1-4H2",
        "InChIKey": null,
        "Canonical SMILES": "O=C1OC(=O)C2CCCCC12",
        "Molecular Formula": "C<sub>8</sub>H<sub>10</sub>O<sub>3</sub>",
        "Molecular Mass": "154.16",
        "Boiling Point": "146 °C @ Press: 15 Torr",
        "Melting Point": "32 °C"
    }
}