{
    "cas_no": "646-01-5",
    "key_name": "3-(Methylthio)propanoic acid",
    "cn_name": "3-(甲硫基)丙酸;3-(甲基硫代)丙酸;",
    "alternate_name": "Propanoic acid, 3-(methylthio)-;Propionic acid, 3-(methylthio)-;3-(Methylthio)propanoic acid;3-(Methylthio)propionic acid;3-(Methylmercapto)propionic acid;3-(Methylmercapto)propanoic acid;3-Methylsulfanylpropionic acid;3-Methylthio-1-propanic acid;3-Methylsulfanylpropanoic acid",
    "duplicated_cas_no": "103722-83-4",
    "SMILES": "C(C(O)=O)CSC",
    "meta_data": {
        "InChI": "InChI=1S/C4H8O2S/c1-7-3-2-4(5)6/h2-3H2,1H3,(H,5,6)",
        "InChIKey": null,
        "Canonical SMILES": "O=C(O)CCSC",
        "Molecular Formula": "C<sub>4</sub>H<sub>8</sub>O<sub>2</sub>S",
        "Molecular Mass": "120.17",
        "Boiling Point": "102-104 °C @ Press: 0.5 Torr",
        "Melting Point": "53 °C",
        "Density": "1.158 g/cm³ @ Temp: 20 °C"
    }
}