{
    "cas_no": "6009-70-7",
    "key_name": "Ammonium oxalate monohydrate",
    "cn_name": "草酸铵;",
    "alternate_name": "Ethanedioic acid, ammonium salt, hydrate (1:2:1);Oxalic acid, diammonium salt, monohydrate;Ethanedioic acid, diammonium salt, monohydrate;Ammonium oxalate monohydrate;Diammonium oxalate monohydrate;Ammonium oxalate ((NH<sub>4</sub>)<sub>2</sub>C<sub>2</sub>O<sub>4</sub>) monohydrate",
    "duplicated_cas_no": "",
    "SMILES": "C(C(O)=O)(O)=O.N.O",
    "meta_data": {
        "InChI": "InChI=1S/C2H2O4.2H3N.H2O/c3-1(4)2(5)6;;;/h(H,3,4)(H,5,6);2*1H3;1H2",
        "InChIKey": null,
        "Canonical SMILES": "O=C(O)C(=O)O.O.N",
        "Molecular Formula": "C<sub>2</sub>H<sub>2</sub>O<sub>4</sub>.2H<sub>3</sub>N.H<sub>2</sub>O",
        "Molecular Mass": "",
        "Melting Point": "75 °C (decomp)",
        "Density": "1.50 g/cm³"
    }
}