{
    "cas_no": "4286-23-1",
    "key_name": "<em>p</em>-Isopropenylphenol",
    "cn_name": null,
    "alternate_name": "Phenol, 4-(1-methylethenyl)-;Phenol, <em>p</em>-isopropenyl-;4-(1-Methylethenyl)phenol;<em>p</em>-Isopropenylphenol;4-Isopropenylphenol;<em>p</em>-Hydroxy-α-methylstyrene;4-Hydroxy-α-methylstyrene;2-(4-Hydroxyphenyl)propene;4-(1-Propen-2-yl)phenol;α-Methyl-<em>p</em>-hydroxystyrene;4-(Methylethenyl)phenol;Milex PM",
    "duplicated_cas_no": "",
    "SMILES": "C(C)(=C)C1=CC=C(O)C=C1",
    "meta_data": {
        "InChI": "InChI=1S/C9H10O/c1-7(2)8-3-5-9(10)6-4-8/h3-6,10H,1H2,2H3",
        "InChIKey": null,
        "Canonical SMILES": "OC1=CC=C(C=C1)C(=C)C",
        "Molecular Formula": "C<sub>9</sub>H<sub>10</sub>O",
        "Molecular Mass": "134.18",
        "Boiling Point": "125-160 °C",
        "Melting Point": "83-84 °C"
    }
}