{
    "cas_no": "923-06-8",
    "key_name": "Bromosuccinic acid",
    "cn_name": "DL-溴丁二酸;",
    "alternate_name": "Butanedioic acid, 2-bromo-;Succinic acid, bromo-;Butanedioic acid, bromo-;2-Bromobutanedioic acid;Bromosuccinic acid;Monobromosuccinic acid;2-Bromosuccinic acid;Succinic acid, bromo-, (±)-;<span class=\"text-smallcaps\">DL</span>-Bromosuccinic acid;NSC 227872",
    "duplicated_cas_no": "584-98-5",
    "SMILES": "C(CC(O)=O)(C(O)=O)Br",
    "meta_data": {
        "InChI": "InChI=1S/C4H5BrO4/c5-2(4(8)9)1-3(6)7/h2H,1H2,(H,6,7)(H,8,9)",
        "InChIKey": null,
        "Canonical SMILES": "O=C(O)CC(Br)C(=O)O",
        "Molecular Formula": "C<sub>4</sub>H<sub>5</sub>BrO<sub>4</sub>",
        "Molecular Mass": "196.98",
        "Melting Point": "161 °C"
    }
}