{
    "cas_no": "630-56-8",
    "key_name": "Hydroxyprogesterone caproate",
    "cn_name": "己酸羟孕酮;羟孕酮己酸酯;己酸孕酮;",
    "alternate_name": "Pregn-4-ene-3,20-dione, 17-[(1-oxohexyl)oxy]-;Pregn-4-ene-3,20-dione, 17-hydroxy-, hexanoate;Progesterone, 17-hydroxy-, hexanoate;Hexanoic acid, ester with 17-hydroxypregn-4-ene-3,20-dione;17-[(1-Oxohexyl)oxy]pregn-4-ene-3,20-dione;Delalutin;3,20-Dioxopregn-4-en-17α-yl caproate;Hormofort;HPC;17α-Hydroxypregn-4-ene-3,20-dione caproate;17α-Hydroxypregn-4-ene-3,20-dione hexanoate;17α-Hydroxyprogesterone <em>n</em>-caproate;17α-Hydroxyprogesterone caproate;17α-Hydroxyprogesterone hexanoate;Proluton Depot;Syngynon;Hydroxyprogesterone caproate;Hydroxyprogesterone hexanoate;Progesterone caproate;Depo-proluton;17α-Caproyloxypregn-4-ene-3,20-dione;Primolut Depot;Neolutin;Pharlon;Proge;Hyproval PA;Lewntogest;Teralutil;NSC 17592;Procyte Depo;17α-Caproyloxyprogesterone;17α-Caproyloxy-P4;17-Caproxyprogesterone",
    "duplicated_cas_no": "106111-89-1;2247-38-3;91037-33-1;552314-18-8",
    "SMILES": "O(C(CCCCC)=O)[C@@]1(C(C)=O)[C@]2(C)[C@@](CC1)([C@]3([C@](CC2)([C@]4(C)C(CC3)=CC(=O)CC4)[H])[H])[H]",
    "meta_data": {
        "InChI": "InChI=1S/C27H40O4/c1-5-6-7-8-24(30)31-27(18(2)28)16-13-23-21-10-9-19-17-20(29)11-14-25(19,3)22(21)12-15-26(23,27)4/h17,21-23H,5-16H2,1-4H3/t21-,22+,23+,25+,26+,27+/m1/s1",
        "InChIKey": null,
        "Canonical SMILES": "O=C(OC1(C(=O)C)CCC2C3CCC4=CC(=O)CCC4(C)C3CCC21C)CCCCC",
        "Molecular Formula": "C<sub>27</sub>H<sub>40</sub>O<sub>4</sub>",
        "Molecular Mass": "428.60",
        "Melting Point": "119-121 °C"
    }
}