{
    "cas_no": "54512-75-3",
    "key_name": "1-Bromo-5-chloropentane",
    "cn_name": "1-溴-5-氯戊烷;",
    "alternate_name": "Pentane, 1-bromo-5-chloro-;1-Bromo-5-chloropentane;5-Chloropentyl bromide;5-Bromo-1-chloropentane;NSC 50474",
    "duplicated_cas_no": "",
    "SMILES": "C(CCBr)CCCl",
    "meta_data": {
        "InChI": "InChI=1S/C5H10BrCl/c6-4-2-1-3-5-7/h1-5H2",
        "InChIKey": null,
        "Canonical SMILES": "ClCCCCCBr",
        "Molecular Formula": "C<sub>5</sub>H<sub>10</sub>BrCl",
        "Molecular Mass": "185.49",
        "Boiling Point": "210-212 °C",
        "Density": "1.488 g/cm³ @ Temp: 15 °C"
    }
}