{
    "cas_no": "110-52-1",
    "key_name": "1,4-Dibromobutane",
    "cn_name": "1,4-二溴丁烷;",
    "alternate_name": "Butane, 1,4-dibromo-;1,4-Dibromobutane;Tetramethylene dibromide;Tetramethylenebromide;α,ω-Dibromobutane;NSC 71435;1,4-Butylene dibromide",
    "duplicated_cas_no": "625084-39-1",
    "SMILES": "C(CCBr)CBr",
    "meta_data": {
        "InChI": "InChI=1S/C4H8Br2/c5-3-1-2-4-6/h1-4H2",
        "InChIKey": null,
        "Canonical SMILES": "BrCCCCBr",
        "Molecular Formula": "C<sub>4</sub>H<sub>8</sub>Br<sub>2</sub>",
        "Molecular Mass": "215.91",
        "Boiling Point": "197 °C",
        "Melting Point": "-16.5 °C",
        "Density": "1.75 g/cm³ @ Temp: 15 °C"
    }
}