{
    "cas_no": "937-14-4",
    "key_name": "<em>m</em>-Chloroperbenzoic acid",
    "cn_name": "间氯过氧苯甲酸;",
    "alternate_name": "Benzenecarboperoxoic acid, 3-chloro-;Peroxybenzoic acid, <em>m</em>-chloro-;3-Chlorobenzenecarboperoxoic acid;3-Chloroperbenzoic acid;3-Chloroperoxybenzoic acid;<em>m</em>-Chlorobenzoyl hydroperoxide;<em>m</em>-Chloroperoxobenzoic acid;MCPBA;<em>m</em>-Chloroperbenzoic acid;<em>m</em>-Chloroperoxybenzoic acid;m-Chloroperoxybenzoic acid;NSC 97094;3-Chlorobenzoperoxoic acid;Meta-chloroperoxybenzoic acid;3-Chlorobenzene-1-carboperoxoic acid",
    "duplicated_cas_no": "",
    "SMILES": "C(OO)(=O)C1=CC(Cl)=CC=C1",
    "meta_data": {
        "InChI": "InChI=1S/C7H5ClO3/c8-6-3-1-2-5(4-6)7(9)11-10/h1-4,10H",
        "InChIKey": null,
        "Canonical SMILES": "O=C(OO)C=1C=CC=C(Cl)C1",
        "Molecular Formula": "C<sub>7</sub>H<sub>5</sub>ClO<sub>3</sub>",
        "Molecular Mass": "172.57",
        "Melting Point": "93 °C (decomp)",
        "Density": "1.482 g/cm³"
    }
}