{
    "cas_no": "54013-06-8",
    "key_name": "2-Pyrazinecarboxylic acid, 5-amino-, ethyl ester",
    "cn_name": "5-氨基吡嗪-2-羧酸乙酯;",
    "alternate_name": "2-Pyrazinecarboxylic acid, 5-amino-, ethyl ester;Pyrazinecarboxylic acid, 5-amino-, ethyl ester;5-Aminopyrazine-2-carboxylic acid ethyl ester;Ethyl 5-aminopyrazine-2-carboxylate;2-Amino-5-ethoxycarbonylpyrazine",
    "duplicated_cas_no": "",
    "SMILES": "C(OCC)(=O)C=1C=NC(N)=CN1",
    "meta_data": {
        "InChI": "InChI=1S/C7H9N3O2/c1-2-12-7(11)5-3-10-6(8)4-9-5/h3-4H,2H2,1H3,(H2,8,10)",
        "InChIKey": null,
        "Canonical SMILES": "O=C(OCC)C=1N=CC(=NC1)N",
        "Molecular Formula": "C<sub>7</sub>H<sub>9</sub>N<sub>3</sub>O<sub>2</sub>",
        "Molecular Mass": "167.17",
        "Melting Point": "174-175 °C"
    }
}