{
    "cas_no": "7646-85-7",
    "key_name": "Zinc chloride",
    "cn_name": "氯化锌;",
    "alternate_name": "Zinc chloride (ZnCl<sub>2</sub>);Zinc chloride;Butter of zinc;Zinc Butter;Zinc dichloride;Zinc(II) chloride;Knittex ZH;NSC 529648;Z 0014",
    "duplicated_cas_no": "53917-99-0;1162648-93-2",
    "SMILES": "[Zn](Cl)Cl",
    "meta_data": {
        "InChI": "InChI=1S/2ClH.Zn/h2*1H;/q;;+2/p-2",
        "InChIKey": null,
        "Canonical SMILES": "Cl[Zn]Cl",
        "Molecular Formula": "Cl<sub>2</sub>Zn",
        "Molecular Mass": "",
        "Boiling Point": "732 °C",
        "Melting Point": "290 °C",
        "Density": "2.907 g/cm³ @ Temp: 25 °C"
    }
}