{
    "cas_no": "22876-19-3",
    "key_name": "5-Chloro-2-mercaptobenzoxazole",
    "cn_name": "5-氯-2-巯基苯并恶唑;",
    "alternate_name": "2(3<em>H</em>)-Benzoxazolethione, 5-chloro-;2-Benzoxazolinethione, 5-chloro-;2-Benzoxazolethiol, 5-chloro-;5-Chloro-2(3<em>H</em>)-benzoxazolethione;5-Chloro-2-thioxobenzoxazoline;5-Chloro-2-mercaptobenzoxazole;5-Chloro-2-benzoxazolethiol;2-Mercapto-5-chlorobenzoxazole;5-Chloro-2-benzoxazolinethione;NSC 26187;5-Chloro-1,3-benzoxazole-2-thiol",
    "duplicated_cas_no": "",
    "SMILES": "S=C1OC=2C(N1)=CC(Cl)=CC2",
    "meta_data": {
        "InChI": "InChI=1S/C7H4ClNOS/c8-4-1-2-6-5(3-4)9-7(11)10-6/h1-3H,(H,9,11)",
        "InChIKey": null,
        "Canonical SMILES": "S=C1OC2=CC=C(Cl)C=C2N1",
        "Molecular Formula": "C<sub>7</sub>H<sub>4</sub>ClNOS",
        "Molecular Mass": "185.63",
        "Melting Point": "275 °C"
    }
}