{
    "cas_no": "18031-40-8",
    "key_name": "(<em>S</em>)-Perillaldehyde",
    "cn_name": null,
    "alternate_name": "1-Cyclohexene-1-carboxaldehyde, 4-(1-methylethenyl)-, (4<em>S</em>)-;1-Cyclohexene-1-carboxaldehyde, 4-isopropenyl-, (<em>S</em>)-(-)-;1-Cyclohexene-1-carboxaldehyde, 4-(1-methylethenyl)-, (<em>S</em>)-;(4<em>S</em>)-4-(1-Methylethenyl)-1-cyclohexene-1-carboxaldehyde;(-)-Perillaldehyde;(4<em>S</em>)-<em>p</em>-Mentha-1,8-dien-7-al;(-)-(<em>S</em>)-Perillaldehyde;<em>l</em>-Perillaldehyde;(<em>S</em>)-(-)-Perillaldehyde;(<em>S</em>)-(-)-Perillic aldehyde;(-)-Perilla aldehyde;(<em>S</em>)-Perillaldehyde;<span class=\"text-smallcaps\">L</span>-Perillaldehyde;(<em>S</em>)-4-(Prop-1-en-2-yl)cyclohex-1-ene-1-carboxaldehyde;(<em>S</em>)-4-(Prop-1-En-2-yl)cyclohex-1-enecarbaldehyde;(4S)-4-(Prop-1-en-2-yl)cyclohex-1-ene-1-carbaldehyde;(4S)-4-Prop-1-en-2-ylcyclohexene-1-carbaldehyde",
    "duplicated_cas_no": "2197111-31-0",
    "SMILES": "C(C)(=C)[C@H]1CCC(C=O)=CC1",
    "meta_data": {
        "InChI": "InChI=1S/C10H14O/c1-8(2)10-5-3-9(7-11)4-6-10/h3,7,10H,1,4-6H2,2H3/t10-/m1/s1",
        "InChIKey": null,
        "Canonical SMILES": "O=CC1=CCC(C(=C)C)CC1",
        "Molecular Formula": "C<sub>10</sub>H<sub>14</sub>O",
        "Molecular Mass": "150.22",
        "Boiling Point": "104.5 °C",
        "Melting Point": "&lt;25 °C",
        "Density": "0.968 g/cm³ @ Temp: 15 °C"
    }
}