{
    "cas_no": "155-58-8",
    "key_name": "Rhaponticin",
    "cn_name": "土大黄苷;",
    "alternate_name": "β-<span class=\"text-smallcaps\">D</span>-Glucopyranoside, 3-hydroxy-5-[(1<em>E</em>)-2-(3-hydroxy-4-methoxyphenyl)ethenyl]phenyl;Rhapontin;β-<span class=\"text-smallcaps\">D</span>-Glucopyranoside, 3-hydroxy-5-[2-(3-hydroxy-4-methoxyphenyl)ethenyl]phenyl, (<em>E</em>)-;3-Hydroxy-5-[(1<em>E</em>)-2-(3-hydroxy-4-methoxyphenyl)ethenyl]phenyl β-<span class=\"text-smallcaps\">D</span>-glucopyranoside;Ponticin;Rhaponticin;3,3′,5-Trihydroxy-4′-methoxystilbene 3-β-<span class=\"text-smallcaps\">D</span>-glucopyranoside;4′-Methoxy-3,3′,5-stilbenetriol 3-β-<span class=\"text-smallcaps\">D</span>-glucopyranoside;NSC 43321;Rhaponticoside;Rhapontinum;<em>trans</em>-Rhapontin",
    "duplicated_cas_no": "101404-85-7;132617-87-9;28883-75-2;31017-06-8",
    "SMILES": "O([C@@H]1O[C@H](CO)[C@@H](O)[C@H](O)[C@H]1O)C2=CC(/C=C/C3=CC(O)=C(OC)C=C3)=CC(O)=C2",
    "meta_data": {
        "InChI": "InChI=1S/C21H24O9/c1-28-16-5-4-11(8-15(16)24)2-3-12-6-13(23)9-14(7-12)29-21-20(27)19(26)18(25)17(10-22)30-21/h2-9,17-27H,10H2,1H3/b3-2+/t17-,18-,19+,20-,21-/m1/s1",
        "InChIKey": null,
        "Canonical SMILES": "OC=1C=C(OC2OC(CO)C(O)C(O)C2O)C=C(C=CC3=CC=C(OC)C(O)=C3)C1",
        "Molecular Formula": "C<sub>21</sub>H<sub>24</sub>O<sub>9</sub>",
        "Molecular Mass": "420.41",
        "Melting Point": "230 °C"
    }
}