{
    "cas_no": "18640-74-9",
    "key_name": "2-Isobutylthiazole",
    "cn_name": "2-异丁基噻唑;",
    "alternate_name": "Thiazole, 2-(2-methylpropyl)-;Thiazole, 2-isobutyl-;2-(2-Methylpropyl)thiazole;2-Isobutylthiazole;2-Isobutyl-1,3-thiazole;NSC 290430;2-(2-Methylpropyl)-1,3-thiazole",
    "duplicated_cas_no": "",
    "SMILES": "C(C(C)C)C1=NC=CS1",
    "meta_data": {
        "InChI": "InChI=1S/C7H11NS/c1-6(2)5-7-8-3-4-9-7/h3-4,6H,5H2,1-2H3",
        "InChIKey": null,
        "Canonical SMILES": "N=1C=CSC1CC(C)C",
        "Molecular Formula": "C<sub>7</sub>H<sub>11</sub>NS",
        "Molecular Mass": "141.23",
        "Boiling Point": "60-62 °C @ Press: 760 Torr"
    }
}