{
    "cas_no": "24587-49-3",
    "key_name": "<em>trans</em>-4-Hydroxycrotonic acid",
    "cn_name": null,
    "alternate_name": "2-Butenoic acid, 4-hydroxy-, (2<em>E</em>)-;Crotonic acid, 4-hydroxy-, (<em>E</em>)-;2-Butenoic acid, 4-hydroxy-, (<em>E</em>)-;(2<em>E</em>)-4-Hydroxy-2-butenoic acid;<em>trans</em>-4-Hydroxycrotonic acid;<em>trans</em>-γ-Hydroxycrotonic acid;(<em>E</em>)-4-Hydroxycrotonic acid;(E)-4-Hydroxybut-2-enoic acid",
    "duplicated_cas_no": "",
    "SMILES": "C(\\C(O)=O)=C/CO",
    "meta_data": {
        "InChI": "InChI=1S/C4H6O3/c5-3-1-2-4(6)7/h1-2,5H,3H2,(H,6,7)/b2-1+",
        "InChIKey": null,
        "Canonical SMILES": "O=C(O)C=CCO",
        "Molecular Formula": "C<sub>4</sub>H<sub>6</sub>O<sub>3</sub>",
        "Molecular Mass": "102.09",
        "Melting Point": "107.5-108.5 °C"
    }
}