{
    "cas_no": "13027-88-8",
    "key_name": "2-Hydroxy-2-methylpropanamide",
    "cn_name": "2-羟基异丁酰胺;2-甲基乳酰胺;2-羟基-2-甲基丙酰胺;",
    "alternate_name": "Propanamide, 2-hydroxy-2-methyl-;Lactamide, 2-methyl-;2-Hydroxy-2-methylpropanamide;α-Hydroxyisobutyramide;2-Hydroxy-2-methylpropionamide;2-Methyllactamide;α-Hydroxyisobutyric acid amide;2-Hydroxyisobutyramide",
    "duplicated_cas_no": "",
    "SMILES": "C(C(N)=O)(C)(C)O",
    "meta_data": {
        "InChI": "InChI=1S/C4H9NO2/c1-4(2,7)3(5)6/h7H,1-2H3,(H2,5,6)",
        "InChIKey": null,
        "Canonical SMILES": "O=C(N)C(O)(C)C",
        "Molecular Formula": "C<sub>4</sub>H<sub>9</sub>NO<sub>2</sub>",
        "Molecular Mass": "103.12",
        "Melting Point": "93-94 °C"
    }
}