{
    "cas_no": "2650-53-5",
    "key_name": "Hexyltrimethylammonium bromide",
    "cn_name": "己基三甲基溴化铵;(1-己基)三甲基溴化铵;",
    "alternate_name": "1-Hexanaminium, <em>N</em>,<em>N</em>,<em>N</em>-trimethyl-, bromide (1:1);Ammonium, hexyltrimethyl-, bromide;Hexyltrimethylammonium bromide;1-Hexanaminium, <em>N</em>,<em>N</em>,<em>N</em>-trimethyl-, bromide;<em>n</em>-Hexyltrimethylammonium bromide;<em>N</em>,<em>N</em>,<em>N</em>-Trimethylhexylammonium bromide",
    "duplicated_cas_no": "",
    "SMILES": "C(C[N+](C)(C)C)CCCC.[Br-]",
    "meta_data": {
        "InChI": "InChI=1S/C9H22N.BrH/c1-5-6-7-8-9-10(2,3)4;/h5-9H2,1-4H3;1H/q+1;/p-1",
        "InChIKey": null,
        "Canonical SMILES": "[Br-].CCCCCC[N+](C)(C)C",
        "Molecular Formula": "C<sub>9</sub>H<sub>22</sub>N.Br",
        "Molecular Mass": "",
        "Melting Point": "174-478 °C"
    }
}