{
    "cas_no": "32998-95-1",
    "key_name": "<em>N</em>-(1,1-Dimethylethyl)-3-methyl-2-pyridinecarboxamide",
    "cn_name": null,
    "alternate_name": "2-Pyridinecarboxamide, <em>N</em>-(1,1-dimethylethyl)-3-methyl-;Picolinamide, <em>N</em>-<em>tert</em>-butyl-3-methyl-;<em>N</em>-(1,1-Dimethylethyl)-3-methyl-2-pyridinecarboxamide;<em>N</em>-(<em>tert</em>-Butyl)-3-methylpyridine-2-carboxamide",
    "duplicated_cas_no": "",
    "SMILES": "C(NC(C)(C)C)(=O)C1=C(C)C=CC=N1",
    "meta_data": {
        "InChI": "InChI=1S/C11H16N2O/c1-8-6-5-7-12-9(8)10(14)13-11(2,3)4/h5-7H,1-4H3,(H,13,14)",
        "InChIKey": null,
        "Canonical SMILES": "O=C(NC(C)(C)C)C1=NC=CC=C1C",
        "Molecular Formula": "C<sub>11</sub>H<sub>16</sub>N<sub>2</sub>O",
        "Molecular Mass": "192.26",
        "Melting Point": "58.0 °C"
    }
}