{
    "cas_no": "544-63-8",
    "key_name": "Myristic acid",
    "cn_name": "肉豆蔻酸;十四酸;",
    "alternate_name": "Tetradecanoic acid;Myristic acid;Neo-Fat 14;Univol U 316S;<em>n</em>-Tetradecoic acid;1-Tridecanecarboxylic acid;<em>n</em>-Tetradecanoic acid;<em>n</em>-Tetradecan-1-oic acid;Prifac 2942;NAA 142;NAA 104;Emery 655;Hystrene 9014;Edenor C 14;Kortacid 1499;Philacid 1400;NSC 5028;Lunac MY 98;Prifrac 2942;Edenor C 14/98-100;1-Tetradecanoic acid;MY 98;Imex C 1499;Palmac 98-14;Lunac M 98;Edenor C14-99 (C);Sinar FA 1499;Myristates;Edenor C14-99;POFAC 1498;MA 1499;MA 1499 (acid);MeSH ID: D019814",
    "duplicated_cas_no": "45184-05-2",
    "SMILES": "C(CCCCCCCC)CCCCC(O)=O",
    "meta_data": {
        "InChI": "InChI=1S/C14H28O2/c1-2-3-4-5-6-7-8-9-10-11-12-13-14(15)16/h2-13H2,1H3,(H,15,16)",
        "InChIKey": null,
        "Canonical SMILES": "O=C(O)CCCCCCCCCCCCC",
        "Molecular Formula": "C<sub>14</sub>H<sub>28</sub>O<sub>2</sub>",
        "Molecular Mass": "228.37",
        "Boiling Point": "326.2 °C",
        "Melting Point": "58.5 °C",
        "Density": "0.8622 g/cm³ @ Temp: 54 °C"
    }
}