{
    "cas_no": "37593-02-5",
    "key_name": "1-(4-Pentylphenyl)ethanone",
    "cn_name": "对戊基苯乙酮;",
    "alternate_name": "Ethanone, 1-(4-pentylphenyl)-;Acetophenone, 4′-pentyl-;1-(4-Pentylphenyl)ethanone;<em>p</em>-<em>n</em>-Pentylacetophenone;4′-Pentylacetophenone;<em>p</em>-Pentylacetophenone;NSC 172891;4-Pentylacetophenone;1-(4-Pentylphenyl)ethan-1-one",
    "duplicated_cas_no": "",
    "SMILES": "C(CCCC)C1=CC=C(C(C)=O)C=C1",
    "meta_data": {
        "InChI": "InChI=1S/C13H18O/c1-3-4-5-6-12-7-9-13(10-8-12)11(2)14/h7-10H,3-6H2,1-2H3",
        "InChIKey": null,
        "Canonical SMILES": "O=C(C1=CC=C(C=C1)CCCCC)C",
        "Molecular Formula": "C<sub>13</sub>H<sub>18</sub>O",
        "Molecular Mass": "190.28",
        "Boiling Point": "159.5 °C @ Press: 17 Torr",
        "Density": "0.914 g/cm³ @ Temp: 20 °C"
    }
}