{
    "cas_no": "52217-57-9",
    "key_name": "(7-Octen-1-yl)trimethoxysilane",
    "cn_name": "7-辛烯基三甲氧基硅烷;",
    "alternate_name": "Silane, trimethoxy-7-octen-1-yl-;Silane, trimethoxy-7-octenyl-;Trimethoxy-7-octen-1-ylsilane;8-(Trimethoxysilyl)-1-octene;Oct-7-enyltrimethoxysilane;(7-Octen-1-yl)trimethoxysilane;TM 7O1S;KBM 1083;M 61776",
    "duplicated_cas_no": "",
    "SMILES": "[Si](CCCCCCC=C)(OC)(OC)OC",
    "meta_data": {
        "InChI": "InChI=1S/C11H24O3Si/c1-5-6-7-8-9-10-11-15(12-2,13-3)14-4/h5H,1,6-11H2,2-4H3",
        "InChIKey": null,
        "Canonical SMILES": "O(C)[Si](OC)(OC)CCCCCCC=C",
        "Molecular Formula": "C<sub>11</sub>H<sub>24</sub>O<sub>3</sub>Si",
        "Molecular Mass": "232.39",
        "Boiling Point": "48-49 °C @ Press: 0.1 Torr",
        "Density": "0.94 g/cm³"
    }
}