{
    "cas_no": "86-21-5",
    "key_name": "(±)-Pheniramine",
    "cn_name": "非尼拉敏;苯吡丙胺;N,N-二甲基-3-苯基-3-(2-吡啶基)丙胺;",
    "alternate_name": "2-Pyridinepropanamine, <em>N</em>,<em>N</em>-dimethyl-γ-phenyl-;Pyridine, 2-[α-[2-(dimethylamino)ethyl]benzyl]-;<em>N</em>,<em>N</em>-Dimethyl-γ-phenyl-2-pyridinepropanamine;2-[α-(2-Dimethylaminoethyl)benzyl]pyridine;Pheniramine;1-Phenyl-1-(2-pyridyl)-3-di-methylaminopropane;3-Phenyl-3-(2-pyridyl)-<em>N</em>,<em>N</em>-dimethylpropylamine;Prophenpyridamine;Tripoton;Pyriton;(±)-Pheniramine;Propheniramine;NSC 47965;MeSH ID: D010632;Peniramine",
    "duplicated_cas_no": "155683-10-6",
    "SMILES": "C(CCN(C)C)(C1=CC=CC=C1)C2=CC=CC=N2",
    "meta_data": {
        "InChI": "InChI=1S/C16H20N2/c1-18(2)13-11-15(14-8-4-3-5-9-14)16-10-6-7-12-17-16/h3-10,12,15H,11,13H2,1-2H3",
        "InChIKey": null,
        "Canonical SMILES": "N=1C=CC=CC1C(C=2C=CC=CC2)CCN(C)C",
        "Molecular Formula": "C<sub>16</sub>H<sub>20</sub>N<sub>2</sub>",
        "Molecular Mass": "240.34",
        "Boiling Point": "181 °C",
        "Melting Point": "&lt;25 °C",
        "Density": "1.0081 g/cm³"
    }
}