{
    "cas_no": "5307-03-9",
    "key_name": "2-Chloro-5-methyl-1,4-benzenediamine",
    "cn_name": "2-氯-5-甲基-1,4-苯二胺;2-甲基-5-氯对苯二胺;",
    "alternate_name": "1,4-Benzenediamine, 2-chloro-5-methyl-;Toluene-2,5-diamine, 4-chloro-;2-Chloro-5-methyl-1,4-benzenediamine;2,5-Diamino-4-chlorotoluene;5-Chloro-2-methyl-1,4-phenylenediamine;1,4-Diamino-2-methyl-5-chlorobenzene;2-Chloro-5-methyl-<em>p</em>-phenylenediamine;2-Methyl-5-chloro-1,4-diaminobenzene;2-Chloro-5-methyl-1,4-phenylenediamine",
    "duplicated_cas_no": "",
    "SMILES": "CC1=C(N)C=C(Cl)C(N)=C1",
    "meta_data": {
        "InChI": "InChI=1S/C7H9ClN2/c1-4-2-7(10)5(8)3-6(4)9/h2-3H,9-10H2,1H3",
        "InChIKey": null,
        "Canonical SMILES": "ClC=1C=C(N)C(=CC1N)C",
        "Molecular Formula": "C<sub>7</sub>H<sub>9</sub>ClN<sub>2</sub>",
        "Molecular Mass": "156.61",
        "Melting Point": "145-146 °C"
    }
}