{
    "cas_no": "6276-54-6",
    "key_name": "1-Propanamine, 3-chloro-, hydrochloride",
    "cn_name": "3-氯丙胺盐酸盐;",
    "alternate_name": "1-Propanamine, 3-chloro-, hydrochloride;Propylamine, 3-chloro-, hydrochloride;3-Amino-1-chloropropane hydrochloride;1-Amino-3-chloropropane hydrochloride;3-Aminopropyl chloride hydrochloride;3-Chloro-1-propanamine hydrochloride;1-Chloro-3-aminopropane hydrochloride;3-Chloropropylamine hydrochloride",
    "duplicated_cas_no": "109467-93-8",
    "SMILES": "C(CCl)CN.Cl",
    "meta_data": {
        "InChI": "InChI=1S/C3H8ClN.ClH/c4-2-1-3-5;/h1-3,5H2;1H",
        "InChIKey": null,
        "Canonical SMILES": "Cl.ClCCCN",
        "Molecular Formula": "C<sub>3</sub>H<sub>8</sub>ClN.ClH",
        "Molecular Mass": "",
        "Melting Point": "146-148 °C"
    }
}