{
    "cas_no": "6153-33-9",
    "key_name": "Diazoline",
    "cn_name": "美海屈林萘二磺酸盐;",
    "alternate_name": "1,5-Naphthalenedisulfonic acid, compd. with 2,3,4,5-tetrahydro-2-methyl-5-(phenylmethyl)-1<em>H</em>-pyrido[4,3-<em>b</em>]indole (1:2);1,5-Naphthalenedisulfonic acid, compd. with 5-benzyl-2,3,4,5-tetrahydro-2-methyl-1<em>H</em>-pyrido[4,3-<em>b</em>]indole (1:2);2<em>H</em>-Pyrido[4,3-<em>b</em>]indole, 5-benzyl-1,3,4,5-tetrahydro-2-methyl-, 1,5-naphthalenedisulfonate (2:1);1<em>H</em>-Pyrido[4,3-<em>b</em>]indole, 5-benzyl-2,3,4,5-tetrahydro-2-methyl-, 1,5-naphthalenedisulfonate (2:1);1<em>H</em>-Pyrido[4,3-<em>b</em>]indole, 2,3,4,5-tetrahydro-2-methyl-5-(phenylmethyl)-, 1,5-naphthalenedisulfonate (2:1);Incidal;Omeril;Diazolin;Diazoline;Mebhydrolin napadisylate;Fabahistin",
    "duplicated_cas_no": "",
    "SMILES": "C(N1C2=C(C=3C1=CC=CC3)CN(C)CC2)C4=CC=CC=C4.S(=O)(=O)(O)C=1C2=C(C(S(=O)(=O)O)=CC=C2)C=CC1",
    "meta_data": {
        "InChI": "InChI=1S/C19H20N2.C10H8O6S2/c1-20-12-11-19-17(14-20)16-9-5-6-10-18(16)21(19)13-15-7-3-2-4-8-15;11-17(12,13)9-5-1-3-7-8(9)4-2-6-10(7)18(14,15)16/h2-10H,11-14H2,1H3;1-6H,(H,11,12,13)(H,14,15,16)",
        "InChIKey": null,
        "Canonical SMILES": "O=S(=O)(O)C=1C=CC=C2C1C=CC=C2S(=O)(=O)O.C=1C=CC(=CC1)CN2C=3C=CC=CC3C4=C2CCN(C)C4",
        "Molecular Formula": "C<sub>19</sub>H<sub>20</sub>N<sub>2</sub>.<sup>1</sup>/<sub>2</sub>C<sub>10</sub>H<sub>8</sub>O<sub>6</sub>S<sub>2</sub>",
        "Molecular Mass": "",
        "Melting Point": "280 °C (decomp)"
    }
}