{
    "cas_no": "20265-96-7",
    "key_name": "4-Chloroaniline hydrochloride",
    "cn_name": "4-氯苯胺盐酸盐;对氯苯胺盐酸盐;",
    "alternate_name": "Benzenamine, 4-chloro-, hydrochloride (1:1);Aniline, <em>p</em>-chloro-, hydrochloride;Benzenamine, 4-chloro-, hydrochloride;<em>p</em>-Chloroaniline hydrochloride;<em>p</em>-Chlorophenylamine hydrochloride;4-Chloroaniline hydrochloride;<em>p</em>-Chloroanilinium chloride;4-Chlorobenzenamine hydrochloride;4-Chlorophenylammonium chloride;4-Chloroanilinium chloride;4-Chloroaniline monohydrochloride",
    "duplicated_cas_no": "",
    "SMILES": "ClC1=CC=C(N)C=C1.Cl",
    "meta_data": {
        "InChI": "InChI=1S/C6H6ClN.ClH/c7-5-1-3-6(8)4-2-5;/h1-4H,8H2;1H",
        "InChIKey": null,
        "Canonical SMILES": "Cl.ClC1=CC=C(N)C=C1",
        "Molecular Formula": "C<sub>6</sub>H<sub>6</sub>ClN.ClH",
        "Molecular Mass": "",
        "Melting Point": "69-70 °C"
    }
}