{
    "cas_no": "13709-59-6",
    "key_name": "Thorium fluoride (ThF<sub>4</sub>), (<em>T</em>-4)-",
    "cn_name": "四氟化钍;",
    "alternate_name": "Thorium fluoride (ThF<sub>4</sub>), (<em>T</em>-4)-;Thorium fluoride (ThF<sub>4</sub>);Thorium tetrafluoride;Thorium tetrafluoride (ThF<sub>4</sub>);Thorium fluoride",
    "duplicated_cas_no": "",
    "SMILES": "[Th](F)(F)(F)F",
    "meta_data": {
        "InChI": "InChI=1S/4FH.Th/h4*1H;/q;;;;+4/p-4",
        "InChIKey": null,
        "Canonical SMILES": "F[Th](F)(F)F",
        "Molecular Formula": "F<sub>4</sub>Th",
        "Molecular Mass": "",
        "Melting Point": "527 °C"
    }
}