{
    "cas_no": "4336-70-3",
    "key_name": "Phosphonium, (cyanomethyl)triphenyl-, chloride (1:1)",
    "cn_name": null,
    "alternate_name": "Phosphonium, (cyanomethyl)triphenyl-, chloride (1:1);Phosphonium, (cyanomethyl)triphenyl-, chloride;(Cyanomethyl)triphenylphosphonium chloride;NSC 92174;(Cyanomethyl)triphenylphosphanium chloride",
    "duplicated_cas_no": "201005-19-8",
    "SMILES": "[P+](CC#N)(C1=CC=CC=C1)(C2=CC=CC=C2)C3=CC=CC=C3.[Cl-]",
    "meta_data": {
        "InChI": "InChI=1S/C20H17NP.ClH/c21-16-17-22(18-10-4-1-5-11-18,19-12-6-2-7-13-19)20-14-8-3-9-15-20;/h1-15H,17H2;1H/q+1;/p-1",
        "InChIKey": null,
        "Canonical SMILES": "[Cl-].N#CC[P+](C=1C=CC=CC1)(C=2C=CC=CC2)C=3C=CC=CC3",
        "Molecular Formula": "C<sub>20</sub>H<sub>17</sub>NP.Cl",
        "Molecular Mass": "",
        "Melting Point": "244 °C"
    }
}