{
    "cas_no": "96-72-0",
    "key_name": "2-Chloro-5-nitrobenzenesulfonamide",
    "cn_name": "3,4-二氨基甲苯;",
    "alternate_name": "Benzenesulfonamide, 2-chloro-5-nitro-;2-Chloro-5-nitrobenzenesulfonamide;NSC 105711;2-Chloro-5-nitrobenzene-1-sulfonamide",
    "duplicated_cas_no": "",
    "SMILES": "S(N)(=O)(=O)C1=CC(N(=O)=O)=CC=C1Cl",
    "meta_data": {
        "InChI": "InChI=1S/C6H5ClN2O4S/c7-5-2-1-4(9(10)11)3-6(5)14(8,12)13/h1-3H,(H2,8,12,13)",
        "InChIKey": null,
        "Canonical SMILES": "O=N(=O)C1=CC=C(Cl)C(=C1)S(=O)(=O)N",
        "Molecular Formula": "C<sub>6</sub>H<sub>5</sub>ClN<sub>2</sub>O<sub>4</sub>S",
        "Molecular Mass": "236.63",
        "Melting Point": "184-185 °C"
    }
}