{
    "cas_no": "23432-40-8",
    "key_name": "6-Methyl-4-quinolinol",
    "cn_name": null,
    "alternate_name": "4-Quinolinol, 6-methyl-;6-Methyl-4-quinolinol;6-Methyl-4-hydroxyquinoline;NSC 82351;4-Hydroxy-6-methylquinoline",
    "duplicated_cas_no": "",
    "SMILES": "OC=1C2=C(C=CC(C)=C2)N=CC1",
    "meta_data": {
        "InChI": "InChI=1S/C10H9NO/c1-7-2-3-9-8(6-7)10(12)4-5-11-9/h2-6H,1H3,(H,11,12)",
        "InChIKey": null,
        "Canonical SMILES": "OC=1C=CN=C2C=CC(=CC12)C",
        "Molecular Formula": "C<sub>10</sub>H<sub>9</sub>NO",
        "Molecular Mass": "159.18",
        "Melting Point": "271-272 °C"
    }
}