{
    "cas_no": "134678-17-4",
    "key_name": "Lamivudine",
    "cn_name": "拉米夫定;拉米呋啶;(2R-顺式)-4-氨基-1-(2-羟甲基-1,3-氧硫杂环戊-5-基)-1H-嘧啶-2-酮;",
    "alternate_name": "2(1<em>H</em>)-Pyrimidinone, 4-amino-1-[(2<em>R</em>,5<em>S</em>)-2-(hydroxymethyl)-1,3-oxathiolan-5-yl]-;2(1<em>H</em>)-Pyrimidinone, 4-amino-1-[2-(hydroxymethyl)-1,3-oxathiolan-5-yl]-, (2<em>R</em>-<em>cis</em>)-;1,3-Oxathiolane, 2(1<em>H</em>)-pyrimidinone deriv.;4-Amino-1-[(2<em>R</em>,5<em>S</em>)-2-(hydroxymethyl)-1,3-oxathiolan-5-yl]-2(1<em>H</em>)-pyrimidinone;(-)-BCH 189;GR 109714X;Lamivudine;BCH 189, (-)-;(-)-2′-Deoxy-3′-thiacytidine;β-<span class=\"text-smallcaps\">L</span>-3′-Thia-2′,3′-dideoxycytidine;Epivir;Zeffix;Heptovir;Epivir HBV;<span class=\"text-smallcaps\">L</span>-SddC;Zefix;Hepitec;β-<span class=\"text-smallcaps\">L</span>-2′,3′-Dideoxy-3′-thiacytidine;3TC;Lamivir;Heptodin;Virolam;2-Hydroxymethyl-5-(cytosin-1-yl)-1,3-oxathiolane;<em>cis</em>(-)-2-Hydroxymethyl-5-(cytosin-1-yl)-1,3-oxathiolane;Lamidine;29: PN: WO2016077321 SEQID: 29 claimed sequence;Hiviral;MeSH ID: D019259",
    "duplicated_cas_no": "480434-79-5;1117764-41-6",
    "SMILES": "O=C1N([C@H]2O[C@@H](CO)SC2)C=CC(N)=N1",
    "meta_data": {
        "InChI": "InChI=1S/C8H11N3O3S/c9-5-1-2-11(8(13)10-5)6-4-15-7(3-12)14-6/h1-2,6-7,12H,3-4H2,(H2,9,10,13)/t6-,7+/m0/s1",
        "InChIKey": null,
        "Canonical SMILES": "O=C1N=C(N)C=CN1C2OC(SC2)CO",
        "Molecular Formula": "C<sub>8</sub>H<sub>11</sub>N<sub>3</sub>O<sub>3</sub>S",
        "Molecular Mass": "229.26",
        "Melting Point": "160-162 °C"
    }
}