{
    "cas_no": "56-08-6",
    "key_name": "2,6-Diamino-4(3<em>H</em>)-pyrimidinethione",
    "cn_name": null,
    "alternate_name": "4(3<em>H</em>)-Pyrimidinethione, 2,6-diamino-;4(1<em>H</em>)-Pyrimidinethione, 2,6-diamino-;4-Pyrimidinethiol, 2,6-diamino-;2,6-Diamino-4(3<em>H</em>)-pyrimidinethione;2,4-Diamino-6-mercaptopyrimidine;2,4-Diaminopyrimidine-6-thione;NSC 12888;2,4-Diaminopyrimidine-6-thiol;2,6-Diaminopyrimidine-4-thiol;2,6-Diamino-1<em>H</em>-pyrimidine-4-thione;2,6-Diamino-1,4-dihydropyrimidine-4-thione;2,6-Diamino-3,4-dihydropyrimidine-4-thione",
    "duplicated_cas_no": "",
    "SMILES": "NC1=CC(=S)N=C(N)N1",
    "meta_data": {
        "InChI": "InChI=1S/C4H6N4S/c5-2-1-3(9)8-4(6)7-2/h1H,(H5,5,6,7,8,9)",
        "InChIKey": null,
        "Canonical SMILES": "S=C1N=C(N)NC(N)=C1",
        "Molecular Formula": "C<sub>4</sub>H<sub>6</sub>N<sub>4</sub>S",
        "Molecular Mass": "142.18",
        "Melting Point": "&gt;230 °C (decomp)"
    }
}