{
    "cas_no": "19733-56-3",
    "key_name": "4-(3-Piperidinyl)benzenamine",
    "cn_name": null,
    "alternate_name": "Benzenamine, 4-(3-piperidinyl)-;Piperidine, 3-(<em>p</em>-aminophenyl)-;4-(3-Piperidinyl)benzenamine;3-(4-Aminophenyl)piperidine;4-(Piperidin-3-yl)aniline",
    "duplicated_cas_no": "",
    "SMILES": "NC1=CC=C(C=C1)C2CCCNC2",
    "meta_data": {
        "InChI": "InChI=1S/C11H16N2/c12-11-5-3-9(4-6-11)10-2-1-7-13-8-10/h3-6,10,13H,1-2,7-8,12H2",
        "InChIKey": null,
        "Canonical SMILES": "NC1=CC=C(C=C1)C2CNCCC2",
        "Molecular Formula": "C<sub>11</sub>H<sub>16</sub>N<sub>2</sub>",
        "Molecular Mass": "176.26",
        "Melting Point": "96-97 °C"
    }
}