{
    "cas_no": "85872-53-3",
    "key_name": "3,9-Dihydro-8-phenyl-1,3-dipropyl-1<em>H</em>-purine-2,6-dione",
    "cn_name": null,
    "alternate_name": "1<em>H</em>-Purine-2,6-dione, 3,9-dihydro-8-phenyl-1,3-dipropyl-;1<em>H</em>-Purine-2,6-dione, 3,7-dihydro-8-phenyl-1,3-dipropyl-;3,9-Dihydro-8-phenyl-1,3-dipropyl-1<em>H</em>-purine-2,6-dione;1,3-Dipropyl-8-phenylxanthine;NPC 200",
    "duplicated_cas_no": "",
    "SMILES": "C(CC)N1C2=C(NC(=N2)C3=CC=CC=C3)C(=O)N(CCC)C1=O",
    "meta_data": {
        "InChI": "InChI=1S/C17H20N4O2/c1-3-10-20-15-13(16(22)21(11-4-2)17(20)23)18-14(19-15)12-8-6-5-7-9-12/h5-9H,3-4,10-11H2,1-2H3,(H,18,19)",
        "InChIKey": null,
        "Canonical SMILES": "O=C1C=2NC(=NC2N(C(=O)N1CCC)CCC)C=3C=CC=CC3",
        "Molecular Formula": "C<sub>17</sub>H<sub>20</sub>N<sub>4</sub>O<sub>2</sub>",
        "Molecular Mass": "312.37",
        "Melting Point": "252-253 °C"
    }
}