{
    "cas_no": "491-38-3",
    "key_name": "Chromone",
    "cn_name": "色酮;乙色唑;色原酮;1,4-苯并哌喃酮;色酮;1-Benzopyran-4-one;",
    "alternate_name": "4<em>H</em>-1-Benzopyran-4-one;Chromone;4<em>H</em>-Chromen-4-one;Benzo-γ-pyrone;2,3-Benzo-4-pyrone",
    "duplicated_cas_no": "",
    "SMILES": "O=C1C=2C(OC=C1)=CC=CC2",
    "meta_data": {
        "InChI": "InChI=1S/C9H6O2/c10-8-5-6-11-9-4-2-1-3-7(8)9/h1-6H",
        "InChIKey": null,
        "Canonical SMILES": "O=C1C=COC=2C=CC=CC12",
        "Molecular Formula": "C<sub>9</sub>H<sub>6</sub>O<sub>2</sub>",
        "Molecular Mass": "146.14",
        "Melting Point": "59 °C"
    }
}