{
    "cas_no": "6024-85-7",
    "key_name": "6<em>H</em>-Dibenzo[<em>a</em>,<em>g</em>]quinolizine, 5,8,13,13a-tetrahydro-2,3,9,10-tetramethoxy-, hydrochloride (1:1)",
    "cn_name": null,
    "alternate_name": "6<em>H</em>-Dibenzo[<em>a</em>,<em>g</em>]quinolizine, 5,8,13,13a-tetrahydro-2,3,9,10-tetramethoxy-, hydrochloride (1:1);Berbine, 2,3,9,10-tetramethoxy-, hydrochloride, (±)-;6<em>H</em>-Dibenzo[<em>a</em>,<em>g</em>]quinolizine, 5,8,13,13a-tetrahydro-2,3,9,10-tetramethoxy-, hydrochloride, (±)-;6<em>H</em>-Dibenzo[<em>a</em>,<em>g</em>]quinolizine, 5,8,13,13a-tetrahydro-2,3,9,10-tetramethoxy-, hydrochloride;<em>dl</em>-Tetrahydropalmatine hydrochloride;Tetrahydropalmatine hydrochloride;(±)-Tetrahydropalmatine hydrochloride;NSC 132057;NSC 209411",
    "duplicated_cas_no": "2506-20-9;35067-82-4",
    "SMILES": "O(C)C=1C=C2C3N(CC=4C(C3)=CC=C(OC)C4OC)CCC2=CC1OC.Cl",
    "meta_data": {
        "InChI": "InChI=1S/C21H25NO4.ClH/c1-23-18-6-5-13-9-17-15-11-20(25-3)19(24-2)10-14(15)7-8-22(17)12-16(13)21(18)26-4;/h5-6,10-11,17H,7-9,12H2,1-4H3;1H",
        "InChIKey": null,
        "Canonical SMILES": "Cl.O(C=1C=C2C(=CC1OC)C3N(CC4=C(OC)C(OC)=CC=C4C3)CC2)C",
        "Molecular Formula": "C<sub>21</sub>H<sub>25</sub>NO<sub>4</sub>.ClH",
        "Molecular Mass": "",
        "Melting Point": "222-223 °C (decomp)"
    }
}