{
    "cas_no": "2955-88-6",
    "key_name": "1-Pyrrolidineethanol",
    "cn_name": "N-(2-羟乙基)-吡咯烷;",
    "alternate_name": "1-Pyrrolidineethanol;2-(1-Pyrrolidino)ethanol;<em>N</em>-(2-Hydroxyethyl)pyrrolidine;2-Pyrrolidinoethanol;1-(2-Hydroxyethyl)pyrrolidine;2-(1-Pyrrolidinyl)ethanol;<em>N</em>-(β-Hydroxyethyl)pyrrolidine;Epolamine;2-(Pyrrolidinyl)ethanol;NSC 26883;2-(Pyrrolidin-1-yl)ethan-1-ol;<em>N</em>-Hydroxyethyl pyrrolidine",
    "duplicated_cas_no": "",
    "SMILES": "C(CO)N1CCCC1",
    "meta_data": {
        "InChI": "InChI=1S/C6H13NO/c8-6-5-7-3-1-2-4-7/h8H,1-6H2",
        "InChIKey": null,
        "Canonical SMILES": "OCCN1CCCC1",
        "Molecular Formula": "C<sub>6</sub>H<sub>13</sub>NO",
        "Molecular Mass": "115.17",
        "Boiling Point": "187-189 °C",
        "Density": "0.9785 g/cm³ @ Temp: 20 °C"
    }
}