{
    "cas_no": "618-39-3",
    "key_name": "Benzamidine",
    "cn_name": "苯甲脒;",
    "alternate_name": "Benzenecarboximidamide;Benzamidine;Benzenylamidine;Phenylamidine;NSC 243704",
    "duplicated_cas_no": "",
    "SMILES": "C(=N)(N)C1=CC=CC=C1",
    "meta_data": {
        "InChI": "InChI=1S/C7H8N2/c8-7(9)6-4-2-1-3-5-6/h1-5H,(H3,8,9)",
        "InChIKey": null,
        "Canonical SMILES": "N=C(N)C=1C=CC=CC1",
        "Molecular Formula": "C<sub>7</sub>H<sub>8</sub>N<sub>2</sub>",
        "Molecular Mass": "120.15",
        "Melting Point": "78-80 °C"
    }
}