{
    "cas_no": "107-11-9",
    "key_name": "Allylamine",
    "cn_name": "烯丙胺;3-氨基丙烯;",
    "alternate_name": "2-Propen-1-amine;Allylamine;3-Aminopropylene;Monoallylamine;3-Aminopropene;3-Amino-1-propene;2-Propenamine;1-Aminoprop-2-ene;2-Propenylamine;NSC 7600;MeSH ID: D000499",
    "duplicated_cas_no": "1561105-23-4",
    "SMILES": "C(CN)=C",
    "meta_data": {
        "InChI": "InChI=1S/C3H7N/c1-2-3-4/h2H,1,3-4H2",
        "InChIKey": null,
        "Canonical SMILES": "C=CCN",
        "Molecular Formula": "C<sub>3</sub>H<sub>7</sub>N",
        "Molecular Mass": "57.09",
        "Boiling Point": "55-58 °C",
        "Melting Point": "-88 °C",
        "Density": "0.760 g/cm³ @ Temp: 20 °C"
    }
}