{
    "cas_no": "1034-01-1",
    "key_name": "Octyl gallate",
    "cn_name": "没食子酸辛酯;3,4,5-三羟基苯甲酸辛酯;",
    "alternate_name": "Benzoic acid, 3,4,5-trihydroxy-, octyl ester;Gallic acid, octyl ester;Octyl gallate;Progallin O;Stabilizer GA 8;<em>n</em>-Octyl gallate;Octyl 3,4,5-trihydroxybenzoate;NSC 97419;E 311;PPC 17",
    "duplicated_cas_no": "",
    "SMILES": "C(OCCCCCCCC)(=O)C1=CC(O)=C(O)C(O)=C1",
    "meta_data": {
        "InChI": "InChI=1S/C15H22O5/c1-2-3-4-5-6-7-8-20-15(19)11-9-12(16)14(18)13(17)10-11/h9-10,16-18H,2-8H2,1H3",
        "InChIKey": null,
        "Canonical SMILES": "O=C(OCCCCCCCC)C1=CC(O)=C(O)C(O)=C1",
        "Molecular Formula": "C<sub>15</sub>H<sub>22</sub>O<sub>5</sub>",
        "Molecular Mass": "282.33",
        "Melting Point": "101-104 °C"
    }
}