{
    "cas_no": "5654-95-5",
    "key_name": "1<em>H</em>-Pyrrolo[2,3-<em>b</em>]pyridine-2,3-dione",
    "cn_name": null,
    "alternate_name": "1<em>H</em>-Pyrrolo[2,3-<em>b</em>]pyridine-2,3-dione;7-Pyrisatin;1<em>H</em>,2<em>H</em>,3<em>H</em>-Pyrrolo[2,3-<em>b</em>]pyridine-2,3-dione",
    "duplicated_cas_no": "",
    "SMILES": "O=C1C=2C(NC1=O)=NC=CC2",
    "meta_data": {
        "InChI": "InChI=1S/C7H4N2O2/c10-5-4-2-1-3-8-6(4)9-7(5)11/h1-3H,(H,8,9,10,11)",
        "InChIKey": null,
        "Canonical SMILES": "O=C1NC2=NC=CC=C2C1=O",
        "Molecular Formula": "C<sub>7</sub>H<sub>4</sub>N<sub>2</sub>O<sub>2</sub>",
        "Molecular Mass": "148.12",
        "Melting Point": "225-230 °C (decomp)"
    }
}