{
    "cas_no": "619-80-7",
    "key_name": "4-Nitrobenzamide",
    "cn_name": "对硝基苯甲酰胺;4-硝基苯甲酰胺;",
    "alternate_name": "Benzamide, 4-nitro-;Benzamide, <em>p</em>-nitro-;4-Nitrobenzamide;<em>p</em>-Nitrobenzamide;NSC 2902",
    "duplicated_cas_no": "",
    "SMILES": "C(N)(=O)C1=CC=C(N(=O)=O)C=C1",
    "meta_data": {
        "InChI": "InChI=1S/C7H6N2O3/c8-7(10)5-1-3-6(4-2-5)9(11)12/h1-4H,(H2,8,10)",
        "InChIKey": null,
        "Canonical SMILES": "O=C(N)C1=CC=C(C=C1)N(=O)=O",
        "Molecular Formula": "C<sub>7</sub>H<sub>6</sub>N<sub>2</sub>O<sub>3</sub>",
        "Molecular Mass": "166.13",
        "Melting Point": "199-201 °C",
        "Density": "1.59 g/cm³ @ Temp: 19.9 °C"
    }
}