{
    "cas_no": "1131-62-0",
    "key_name": "3,4-Dimethoxyacetophenone",
    "cn_name": "3,4-二甲氧基苯乙酮;",
    "alternate_name": "Ethanone, 1-(3,4-dimethoxyphenyl)-;Acetophenone, 3′,4′-dimethoxy-;1-(3,4-Dimethoxyphenyl)ethanone;Acetoveratrone;3′,4′-Dimethoxyacetophenone;3,4-Dimethoxyacetophenone;3,4-Dimethoxyphenyl methyl ketone;Methyl 3,4-dimethoxyphenyl ketone;4-Acetylveratrole;NSC 16944;NSC 18708;1-(4,5-Dimethoxyphenyl)ethanone;4-Acetyl-1,2-dimethoxybenzene;1-(3,4-Dimethoxyphenyl)ethan-1-one",
    "duplicated_cas_no": "",
    "SMILES": "O(C)C1=C(OC)C=CC(C(C)=O)=C1",
    "meta_data": {
        "InChI": "InChI=1S/C10H12O3/c1-7(11)8-4-5-9(12-2)10(6-8)13-3/h4-6H,1-3H3",
        "InChIKey": null,
        "Canonical SMILES": "O=C(C1=CC=C(OC)C(OC)=C1)C",
        "Molecular Formula": "C<sub>10</sub>H<sub>12</sub>O<sub>3</sub>",
        "Molecular Mass": "180.20",
        "Boiling Point": "287 °C",
        "Melting Point": "51 °C"
    }
}