{
    "cas_no": "23811-08-7",
    "key_name": "Hinesol",
    "cn_name": null,
    "alternate_name": "Spiro[4.5]dec-6-ene-2-methanol, α,α,6,10-tetramethyl-, (2<em>R</em>,5<em>S</em>,10<em>S</em>)-;Hinesol;Spiro[4.5]dec-6-ene-2-methanol, α,α,6,10-tetramethyl-, [2<em>R</em>-[2α,5α(<em>S</em>*)]]-;(2<em>R</em>,5<em>S</em>,10<em>S</em>)-α,α,6,10-Tetramethylspiro[4.5]dec-6-ene-2-methanol;(-)-Hinesol",
    "duplicated_cas_no": "4895-33-4;26934-83-8",
    "SMILES": "C[C@@H]1[C@]2(C[C@H]([C@@](C)(C)O)CC2)C(C)=CCC1",
    "meta_data": {
        "InChI": "InChI=1S/C15H26O/c1-11-6-5-7-12(2)15(11)9-8-13(10-15)14(3,4)16/h6,12-13,16H,5,7-10H2,1-4H3/t12-,13+,15+/m0/s1",
        "InChIKey": null,
        "Canonical SMILES": "OC(C)(C)C1CCC2(C(=CCCC2C)C)C1",
        "Molecular Formula": "C<sub>15</sub>H<sub>26</sub>O",
        "Molecular Mass": "222.37",
        "Boiling Point": "129 °C @ Press: 4 Torr",
        "Melting Point": "59-60 °C",
        "Density": "0.972 g/cm³ @ Temp: 4 °C"
    }
}