{
    "cas_no": "859-65-4",
    "key_name": "1-Phenyl-2-(triphenylphosphoranylidene)ethanone",
    "cn_name": "(苯甲酰基亚甲基)三苯基磷烷;(苯甲酰甲烯)三苯基磷烷;",
    "alternate_name": "Ethanone, 1-phenyl-2-(triphenylphosphoranylidene)-;Acetophenone, 2-(triphenylphosphoranylidene)-;1-Phenyl-2-(triphenylphosphoranylidene)ethanone;2-(Triphenylphosphoranylidene)acetophenone;Phenacylidenetriphenylphosphorane;(Phenylcarbonylmethylene)triphenylphosphorane;SKF 45359;α-(Triphenylphosphoranylidene)acetophenone;(Benzoylmethylene)triphenylphosphorane;(2-Oxo-2-phenylethylidene)triphenylphosphorane;NSC 167167;Triphenylphosphoranylideneacetophenone;1-Phenyl-2-(triphenylphosphanylidene)ethan-1-one",
    "duplicated_cas_no": "",
    "SMILES": "P(=CC(=O)C1=CC=CC=C1)(C2=CC=CC=C2)(C3=CC=CC=C3)C4=CC=CC=C4",
    "meta_data": {
        "InChI": "InChI=1S/C26H21OP/c27-26(22-13-5-1-6-14-22)21-28(23-15-7-2-8-16-23,24-17-9-3-10-18-24)25-19-11-4-12-20-25/h1-21H",
        "InChIKey": null,
        "Canonical SMILES": "O=C(C=P(C=1C=CC=CC1)(C=2C=CC=CC2)C=3C=CC=CC3)C=4C=CC=CC4",
        "Molecular Formula": "C<sub>26</sub>H<sub>21</sub>OP",
        "Molecular Mass": "380.42",
        "Melting Point": "186-188 °C"
    }
}