{
    "cas_no": "676-83-5",
    "key_name": "Dichloromethylphosphine",
    "cn_name": "甲基二氯膦;二氯甲基磷(禁运);甲基二氯膦;二氯甲基磷;",
    "alternate_name": "Phosphonous dichloride, <em>P</em>-methyl-;Phosphonous dichloride, methyl-;<em>P</em>-Methylphosphonous dichloride;Phosphine, dichloromethyl-;Dichloromethylphosphine;Methyldichlorophosphine;Methylphosphonous dichloride;Methylphosphinic dichloride;Methylphosphinous dichloride;Methylphosphorus dichloride;Methyldichlorophosphane",
    "duplicated_cas_no": "",
    "SMILES": "P(C)(Cl)Cl",
    "meta_data": {
        "InChI": "InChI=1S/CH3Cl2P/c1-4(2)3/h1H3",
        "InChIKey": null,
        "Canonical SMILES": "ClP(Cl)C",
        "Molecular Formula": "CH<sub>3</sub>Cl<sub>2</sub>P",
        "Molecular Mass": "116.91",
        "Boiling Point": "77-79 °C",
        "Density": "1.3039 g/cm³ @ Temp: 20 °C"
    }
}