{
    "cas_no": "62009-47-6",
    "key_name": "2-Aminopropanediamide",
    "cn_name": null,
    "alternate_name": "Propanediamide, 2-amino-;Malonamide, 2-amino-;2-Aminopropanediamide;Aminomalonamide;NSC 75208;2-Aminomalonamide",
    "duplicated_cas_no": "",
    "SMILES": "C(C(N)=O)(C(N)=O)N",
    "meta_data": {
        "InChI": "InChI=1S/C3H7N3O2/c4-1(2(5)7)3(6)8/h1H,4H2,(H2,5,7)(H2,6,8)",
        "InChIKey": null,
        "Canonical SMILES": "O=C(N)C(N)C(=O)N",
        "Molecular Formula": "C<sub>3</sub>H<sub>7</sub>N<sub>3</sub>O<sub>2</sub>",
        "Molecular Mass": "117.11",
        "Melting Point": "196 °C"
    }
}