{
    "cas_no": "51-30-9",
    "key_name": "(±)-Isoproterenol hydrochloride",
    "cn_name": "盐酸异丙肾上腺素;4-[(2-异丙氨基-1-羟基)乙基]-1,2-苯二酚盐酸盐;",
    "alternate_name": "1,2-Benzenediol, 4-[1-hydroxy-2-[(1-methylethyl)amino]ethyl]-, hydrochloride (1:1);Benzyl alcohol, 3,4-dihydroxy-α-[(isopropylamino)methyl]-, hydrochloride;1,2-Benzenediol, 4-[1-hydroxy-2-[(1-methylethyl)amino]ethyl]-, hydrochloride;Protocatechuyl alcohol, α-(isopropylaminomethyl)-, hydrochloride;α-(Isopropylaminomethyl)-3,4-dihydroxybenzyl alcohol hydrochloride;3,4-Dihydroxy-α-(isopropylaminomethyl)benzyl alcohol hydrochloride;Isoprenaline hydrochloride;Isoproterenol hydrochloride;Isuprel;Isopropylarterenol hydrochloride;Euspiran;Isadrine;Isoprenaline chloride;Saventrine;Proternol;1-(3,4-Dihydroxyphenyl)-2-(isopropylamino)ethanol hydrochloride;(±)-Isoprenaline hydrochloride;<em>dl</em>-Isopropylnoradrenaline hydrochloride;(±)-Isopropylnoradrenaline hydrochloride;<em>dl</em>-Isopropylnorepinephrine hydrochloride;<em>dl</em>-Isoproterenol hydrochloride;(±)-Isoproterenol hydrochloride;<em>dl</em>-Isoprenaline hydrochloride;<em>dl</em>-Isadrine hydrochloride;<span class=\"text-smallcaps\">DL</span>-Isoproterenol hydrochloride;<span class=\"text-smallcaps\">DL</span>-Isoprenaline hydrochloride;Asthpul;Vapo-Iso;Suscardia;Mistarel;Isomenyl;Aerolone;Aerotrol;Isovon;NSC 37745;NSC 89747;Isoprel",
    "duplicated_cas_no": "949-36-0;1336-89-6;71249-42-8",
    "SMILES": "C(CNC(C)C)(O)C1=CC(O)=C(O)C=C1.Cl",
    "meta_data": {
        "InChI": "InChI=1S/C11H17NO3.ClH/c1-7(2)12-6-11(15)8-3-4-9(13)10(14)5-8;/h3-5,7,11-15H,6H2,1-2H3;1H",
        "InChIKey": null,
        "Canonical SMILES": "Cl.OC1=CC=C(C=C1O)C(O)CNC(C)C",
        "Molecular Formula": "C<sub>11</sub>H<sub>17</sub>NO<sub>3</sub>.ClH",
        "Molecular Mass": "",
        "Melting Point": "170-172 °C (decomp)"
    }
}