{
    "cas_no": "56-49-5",
    "key_name": "3-Methylcholanthrene",
    "cn_name": "3-甲基胆蒽;",
    "alternate_name": "Benz[<em>j</em>]aceanthrylene, 1,2-dihydro-3-methyl-;Cholanthrene, 3-methyl-;1,2-Dihydro-3-methylbenz[<em>j</em>]aceanthrylene;20-MC;3-MC;Methylcholanthrene;20-Methylcholanthrene;3-Methylcholanthrene;MCA;NSC 21970;3-Methyl-1,2-dihydrobenzo[<em>j</em>]aceanthrylene;3-Methyl-1,2-dihydrocyclopenta[<em>ij</em>]tetraphene;MeSH ID: D008748",
    "duplicated_cas_no": "345299-31-2",
    "SMILES": "CC1=C2C3=C(C=4C(C=C3C=C1)=C5C(=CC4)C=CC=C5)CC2",
    "meta_data": {
        "InChI": "InChI=1S/C21H16/c1-13-6-7-15-12-20-17-5-3-2-4-14(17)8-9-18(20)19-11-10-16(13)21(15)19/h2-9,12H,10-11H2,1H3",
        "InChIKey": null,
        "Canonical SMILES": "C=1C=CC2=C(C1)C=CC3=C2C=C4C=CC(=C5C4=C3CC5)C",
        "Molecular Formula": "C<sub>21</sub>H<sub>16</sub>",
        "Molecular Mass": "268.35",
        "Boiling Point": "280 °C @ Press: 80 Torr",
        "Melting Point": "179 °C",
        "Density": "1.28 g/cm³ @ Temp: 20 °C"
    }
}