{
    "cas_no": "122-79-2",
    "key_name": "Phenyl acetate",
    "cn_name": "乙酸苯酯;醋酸苯酯;",
    "alternate_name": "Acetic acid, phenyl ester;Phenyl acetate;Phenol acetate;(Acetyloxy)benzene;Acetoxybenzene;NSC 27795;2-Acetoxybenzene",
    "duplicated_cas_no": "",
    "SMILES": "O(C(C)=O)C1=CC=CC=C1",
    "meta_data": {
        "InChI": "InChI=1S/C8H8O2/c1-7(9)10-8-5-3-2-4-6-8/h2-6H,1H3",
        "InChIKey": null,
        "Canonical SMILES": "O=C(OC=1C=CC=CC1)C",
        "Molecular Formula": "C<sub>8</sub>H<sub>8</sub>O<sub>2</sub>",
        "Molecular Mass": "136.15",
        "Boiling Point": "196 °C",
        "Melting Point": "-30 °C",
        "Density": "1.073 g/cm³ @ Temp: 20 °C"
    }
}