{
    "cas_no": "79-36-7",
    "key_name": "Dichloroacetyl chloride",
    "cn_name": "二氯乙酰氯;2,2-二氯乙酰氯;",
    "alternate_name": "Acetyl chloride, 2,2-dichloro-;Acetyl chloride, dichloro-;2,2-Dichloroacetyl chloride;Dichloracetyl chloride;Dichloroethanoyl chloride;Dichloroacetyl chloride;α,α-Dichloroacetyl chloride;Dichloroacetic acid chloride",
    "duplicated_cas_no": "",
    "SMILES": "C(C(Cl)=O)(Cl)Cl",
    "meta_data": {
        "InChI": "InChI=1S/C2HCl3O/c3-1(4)2(5)6/h1H",
        "InChIKey": null,
        "Canonical SMILES": "O=C(Cl)C(Cl)Cl",
        "Molecular Formula": "C<sub>2</sub>HCl<sub>3</sub>O",
        "Molecular Mass": "147.39",
        "Boiling Point": "107-108 °C @ Press: 760 Torr",
        "Melting Point": "&lt;25 °C",
        "Density": "1.5315 g/cm³ @ Temp: 16 °C"
    }
}