{
    "cas_no": "1193-22-2",
    "key_name": "6-Amino-4(3<em>H</em>)-pyrimidinone",
    "cn_name": "4-氨基-6-羟基嘧啶;",
    "alternate_name": "4(3<em>H</em>)-Pyrimidinone, 6-amino-;4(1<em>H</em>)-Pyrimidinone, 6-amino-;4-Pyrimidinol, 6-amino-;6-Amino-4(3<em>H</em>)-pyrimidinone;4-Hydroxy-6-aminopyrimidine;4-Amino-6-hydroxypyrimidine;4-Amino-6-pyrimidinol;NSC 19868;6-Aminopyrimidin-4(3<em>H</em>)-one",
    "duplicated_cas_no": "36215-23-3",
    "SMILES": "NC1=CC(=O)N=CN1",
    "meta_data": {
        "InChI": "InChI=1S/C4H5N3O/c5-3-1-4(8)7-2-6-3/h1-2H,(H3,5,6,7,8)",
        "InChIKey": null,
        "Canonical SMILES": "O=C1N=CNC(N)=C1",
        "Molecular Formula": "C<sub>4</sub>H<sub>5</sub>N<sub>3</sub>O",
        "Molecular Mass": "111.10",
        "Melting Point": "263-264 °C (decomp)"
    }
}