{
    "cas_no": "629652-44-4",
    "key_name": "Methyl (1<em>R</em>,3<em>S</em>)-1-(1,3-benzodioxol-5-yl)-2-(2-chloroacetyl)-2,3,4,9-tetrahydro-1<em>H</em>-pyrido[3,4-<em>b</em>]indole-3-carboxylate",
    "cn_name": null,
    "alternate_name": "1<em>H</em>-Pyrido[3,4-<em>b</em>]indole-3-carboxylic acid, 1-(1,3-benzodioxol-5-yl)-2-(2-chloroacetyl)-2,3,4,9-tetrahydro-, methyl ester, (1<em>R</em>,3<em>S</em>)-;1<em>H</em>-Pyrido[3,4-<em>b</em>]indole-3-carboxylic acid, 1-(1,3-benzodioxol-5-yl)-2-(chloroacetyl)-2,3,4,9-tetrahydro-, methyl ester, (1<em>R</em>,3<em>S</em>)-;Methyl (1<em>R</em>,3<em>S</em>)-1-(1,3-benzodioxol-5-yl)-2-(2-chloroacetyl)-2,3,4,9-tetrahydro-1<em>H</em>-pyrido[3,4-<em>b</em>]indole-3-carboxylate",
    "duplicated_cas_no": "",
    "SMILES": "C(CCl)(=O)N1[C@@H](C2=C(C=3C(N2)=CC=CC3)C[C@H]1C(OC)=O)C=4C=C5C(=CC4)OCO5",
    "meta_data": {
        "InChI": "InChI=1S/C22H19ClN2O5/c1-28-22(27)16-9-14-13-4-2-3-5-15(13)24-20(14)21(25(16)19(26)10-23)12-6-7-17-18(8-12)30-11-29-17/h2-8,16,21,24H,9-11H2,1H3/t16-,21+/m0/s1",
        "InChIKey": null,
        "Canonical SMILES": "O=C(OC)C1N(C(=O)CCl)C(C2=CC=C3OCOC3=C2)C=4NC=5C=CC=CC5C4C1",
        "Molecular Formula": "C<sub>22</sub>H<sub>19</sub>ClN<sub>2</sub>O<sub>5</sub>",
        "Molecular Mass": "426.85",
        "Melting Point": "208 °C"
    }
}