{
    "cas_no": "192869-50-4",
    "key_name": "5,6,7,8-Tetrahydropyrido[4,3-<em>d</em>]pyrimidine",
    "cn_name": null,
    "alternate_name": "Pyrido[4,3-<em>d</em>]pyrimidine, 5,6,7,8-tetrahydro-;5,6,7,8-Tetrahydropyrido[4,3-<em>d</em>]pyrimidine",
    "duplicated_cas_no": "",
    "SMILES": "C1=2C(CCNC1)=NC=NC2",
    "meta_data": {
        "InChI": "InChI=1S/C7H9N3/c1-2-8-3-6-4-9-5-10-7(1)6/h4-5,8H,1-3H2",
        "InChIKey": null,
        "Canonical SMILES": "N=1C=NC2=C(C1)CNCC2",
        "Molecular Formula": "C<sub>7</sub>H<sub>9</sub>N<sub>3</sub>",
        "Molecular Mass": "135.17",
        "Melting Point": "186-187 °C"
    }
}