{
    "cas_no": "3486-66-6",
    "key_name": "Coptisine",
    "cn_name": "硫酸黄连碱;",
    "alternate_name": "Bis[1,3]benzodioxolo[5,6-<em>a</em>:4′,5′-<em>g</em>]quinolizinium, 6,7-dihydro-;Berbinium, 7,8,13,13a-tetradehydro-2,3:9,10-bis(methylenedioxy)-;6,7-Dihydrobis[1,3]benzodioxolo[5,6-<em>a</em>:4′,5′-<em>g</em>]quinolizinium;Coptisine;Coptisin;Alkaloid A, from <em>Coptis</em><em>groenlandica</em>;YHL II",
    "duplicated_cas_no": "740735-06-2;2832957-81-8",
    "SMILES": "C1=2C=3C(=CC4=C(C3)OCO4)CC[N+]1=CC=5C(C2)=CC=C6C5OCO6",
    "meta_data": {
        "InChI": "InChI=1S/C19H14NO4/c1-2-16-19(24-10-21-16)14-8-20-4-3-12-6-17-18(23-9-22-17)7-13(12)15(20)5-11(1)14/h1-2,5-8H,3-4,9-10H2/q+1",
        "InChIKey": null,
        "Canonical SMILES": "O1C=2C=CC3=CC=4C5=CC=6OCOC6C=C5CC[N+]4C=C3C2OC1",
        "Molecular Formula": "C<sub>19</sub>H<sub>14</sub>NO<sub>4</sub>",
        "Molecular Mass": "",
        "Melting Point": "212-217 °C"
    }
}