{
    "cas_no": "655-86-7",
    "key_name": "2,3-Diaminophenazine",
    "cn_name": null,
    "alternate_name": "2,3-Phenazinediamine;Phenazine, 2,3-diamino-;2,3-Diaminophenazine",
    "duplicated_cas_no": "",
    "SMILES": "NC1=CC2=C(N=C3C(=N2)C=CC=C3)C=C1N",
    "meta_data": {
        "InChI": "InChI=1S/C12H10N4/c13-7-5-11-12(6-8(7)14)16-10-4-2-1-3-9(10)15-11/h1-6H,13-14H2",
        "InChIKey": null,
        "Canonical SMILES": "N1=C2C=CC=CC2=NC3=CC(N)=C(N)C=C13",
        "Molecular Formula": "C<sub>12</sub>H<sub>10</sub>N<sub>4</sub>",
        "Molecular Mass": "210.23",
        "Melting Point": "264 °C"
    }
}