{
    "cas_no": "1579-78-8",
    "key_name": "3-(4-Fluorophenoxy)propanoic acid",
    "cn_name": "3-(4-氟苯氧基)丙酸;",
    "alternate_name": "Propanoic acid, 3-(4-fluorophenoxy)-;Propionic acid, 3-(<em>p</em>-fluorophenoxy)-;3-(4-Fluorophenoxy)propanoic acid;3-(<em>p</em>-Fluorophenoxy)propionic acid;3-(4-Fluorophenoxy)propionic acid",
    "duplicated_cas_no": "",
    "SMILES": "O(CCC(O)=O)C1=CC=C(F)C=C1",
    "meta_data": {
        "InChI": "InChI=1S/C9H9FO3/c10-7-1-3-8(4-2-7)13-6-5-9(11)12/h1-4H,5-6H2,(H,11,12)",
        "InChIKey": null,
        "Canonical SMILES": "O=C(O)CCOC1=CC=C(F)C=C1",
        "Molecular Formula": "C<sub>9</sub>H<sub>9</sub>FO<sub>3</sub>",
        "Molecular Mass": "184.16",
        "Boiling Point": "170-175 °C @ Press: 55-60 Torr",
        "Melting Point": "86 °C"
    }
}