{
    "cas_no": "96489-71-3",
    "key_name": "Pyridaben",
    "cn_name": null,
    "alternate_name": "3(2<em>H</em>)-Pyridazinone, 4-chloro-2-(1,1-dimethylethyl)-5-[[[4-(1,1-dimethylethyl)phenyl]methyl]thio]-;4-Chloro-2-(1,1-dimethylethyl)-5-[[[4-(1,1-dimethylethyl)phenyl]methyl]thio]-3(2<em>H</em>)-pyridazinone;NCI 129;NC 129;Pyridaben;Sanmite;Nexter;Damanlin;BAS 300;2-<em>tert</em>-Butyl-5-(4-<em>tert</em>-butylbenzylthio)-4-chloropyridazin-3(2<em>H</em>)-one;Pyramite;GWN 1715",
    "duplicated_cas_no": "",
    "SMILES": "S(CC1=CC=C(C(C)(C)C)C=C1)C2=C(Cl)C(=O)N(C(C)(C)C)N=C2",
    "meta_data": {
        "InChI": "InChI=1S/C19H25ClN2OS/c1-18(2,3)14-9-7-13(8-10-14)12-24-15-11-21-22(19(4,5)6)17(23)16(15)20/h7-11H,12H2,1-6H3",
        "InChIKey": null,
        "Canonical SMILES": "O=C1C(Cl)=C(SCC2=CC=C(C=C2)C(C)(C)C)C=NN1C(C)(C)C",
        "Molecular Formula": "C<sub>19</sub>H<sub>25</sub>ClN<sub>2</sub>OS",
        "Molecular Mass": "364.93",
        "Melting Point": "111-112 °C",
        "Density": "1.2 g/cm³ @ Temp: 20 °C"
    }
}