{
    "cas_no": "610-66-2",
    "key_name": "2-Nitrobenzeneacetonitrile",
    "cn_name": "邻硝基苯乙腈;2-硝基苯乙腈;",
    "alternate_name": "Benzeneacetonitrile, 2-nitro-;Acetonitrile, (<em>o</em>-nitrophenyl)-;2-Nitrobenzeneacetonitrile;<em>o</em>-Nitrobenzacetonitrile;(2-Nitrophenyl)acetonitrile;(<em>o</em>-Nitrophenyl)acetonitrile;2-Nitrobenzyl cyanide;<em>o</em>-Nitrobenzyl cyanide;NSC 99338;2-(2-Nitrophenyl)acetonitrile",
    "duplicated_cas_no": "",
    "SMILES": "N(=O)(=O)C1=C(CC#N)C=CC=C1",
    "meta_data": {
        "InChI": "InChI=1S/C8H6N2O2/c9-6-5-7-3-1-2-4-8(7)10(11)12/h1-4H,5H2",
        "InChIKey": null,
        "Canonical SMILES": "N#CCC=1C=CC=CC1N(=O)=O",
        "Molecular Formula": "C<sub>8</sub>H<sub>6</sub>N<sub>2</sub>O<sub>2</sub>",
        "Molecular Mass": "162.15",
        "Boiling Point": "178 °C @ Press: 12 Torr",
        "Melting Point": "84 °C"
    }
}