{
    "cas_no": "2955-27-3",
    "key_name": "Ursocholic acid",
    "cn_name": null,
    "alternate_name": "Cholan-24-oic acid, 3,7,12-trihydroxy-, (3α,5β,7β,12α)-;5β-Cholan-24-oic acid, 3α,7β,12α-trihydroxy-;5β-Cholanic acid, 3α,7β,12α-trihydroxy-;(3α,5β,7β,12α)-3,7,12-Trihydroxycholan-24-oic acid;7-Epicholic acid;3α,7β,12α-Trihydroxycholanic acid;3α,7β,12α-Trihydroxy-5β-cholan-24-oic acid;3α,7β,12α-Trihydroxy-5β-cholanic acid;3α,7β,12α-Trihydroxy-5β-cholanoic acid;Ursocholic acid;7β-Hydroxyisocholic acid",
    "duplicated_cas_no": "121571-08-2",
    "SMILES": "O[C@@H]1[C@]2([C@]3([C@@](C)([C@@]([C@@H](CCC(O)=O)C)(CC3)[H])[C@@H](O)C[C@@]2([C@]4(C)[C@](C1)(C[C@H](O)CC4)[H])[H])[H])[H]",
    "meta_data": {
        "InChI": "InChI=1S/C24H40O5/c1-13(4-7-21(28)29)16-5-6-17-22-18(12-20(27)24(16,17)3)23(2)9-8-15(25)10-14(23)11-19(22)26/h13-20,22,25-27H,4-12H2,1-3H3,(H,28,29)/t13-,14+,15-,16-,17+,18+,19+,20+,22+,23+,24-/m1/s1",
        "InChIKey": null,
        "Canonical SMILES": "O=C(O)CCC(C)C1CCC2C3C(O)CC4CC(O)CCC4(C)C3CC(O)C12C",
        "Molecular Formula": "C<sub>24</sub>H<sub>40</sub>O<sub>5</sub>",
        "Molecular Mass": "408.57",
        "Melting Point": "144 °C"
    }
}