{
    "cas_no": "105-65-7",
    "key_name": "Diisopropylxanthogen disulfide",
    "cn_name": "二硫化二异丙基黄原酸酯;促进剂DIP;",
    "alternate_name": "Thioperoxydicarbonic acid ([(HO)C(S)]<sub>2</sub>S<sub>2</sub>), <em>C</em>,<em>C</em>′-bis(1-methylethyl) ester;Formic acid, dithiobis[thio-, <em>O</em>,<em>O</em>-diisopropyl ester;Thioperoxydicarbonic acid ([(HO)C(S)]<sub>2</sub>S<sub>2</sub>), bis(1-methylethyl) ester;Bis(isopropylxanthogen) disulfide;Diproxid;Isopropyl xanthogen disulfide;Diproxide;Diisopropylxanthogen disulfide;Bis(<em>O</em>-isopropylxanthyl) disulfide;Diisopropyl dixanthogen;<em>O</em>,<em>O</em>-Diisopropyl dithiobis(thioformate);Diisopropyl xanthogenate disulfide;Bis(2-propyl) dixanthogen;Diisopropyl tetrathioperoxydicarbonate;NSC 1339;Bis(isopropoxythiocarbonyl) disulfide;Bis(isopropoxythiocarbonyl)disulfane;NSC 402565;Cure-rite DIXIE;Sanbit DIX;(Propan-2-yloxy)([[(propan-2-yloxy)methanethioyl]disulfanyl])methanethione;Isopropylxanthic disulfide",
    "duplicated_cas_no": "",
    "SMILES": "C(SSC(OC(C)C)=S)(OC(C)C)=S",
    "meta_data": {
        "InChI": "InChI=1S/C8H14O2S4/c1-5(2)9-7(11)13-14-8(12)10-6(3)4/h5-6H,1-4H3",
        "InChIKey": null,
        "Canonical SMILES": "S=C(OC(C)C)SSC(=S)OC(C)C",
        "Molecular Formula": "C<sub>8</sub>H<sub>14</sub>O<sub>2</sub>S<sub>4</sub>",
        "Molecular Mass": "270.46",
        "Melting Point": "53-57 °C"
    }
}