{
    "cas_no": "19230-28-5",
    "key_name": "1,3-Dichloro-2-iodobenzene",
    "cn_name": null,
    "alternate_name": "Benzene, 1,3-dichloro-2-iodo-;1,3-Dichloro-2-iodobenzene;2,6-Dichlorophenyl iodide;2,6-Dichloroiodobenzene;2,6-Dichloro-1-iodobenzene;1-Iodo-2,6-dichlorobenzene",
    "duplicated_cas_no": "",
    "SMILES": "IC1=C(Cl)C=CC=C1Cl",
    "meta_data": {
        "InChI": "InChI=1S/C6H3Cl2I/c7-4-2-1-3-5(8)6(4)9/h1-3H",
        "InChIKey": null,
        "Canonical SMILES": "ClC1=CC=CC(Cl)=C1I",
        "Molecular Formula": "C<sub>6</sub>H<sub>3</sub>Cl<sub>2</sub>I",
        "Molecular Mass": "272.90",
        "Melting Point": "68 °C"
    }
}