{
    "cas_no": "21667-63-0",
    "key_name": "3-Cyano-β-oxobenzenepropanenitrile",
    "cn_name": null,
    "alternate_name": "Benzenepropanenitrile, 3-cyano-β-oxo-;Benzonitrile, <em>m</em>-(cyanoacetyl)-;3-Cyano-β-oxobenzenepropanenitrile;3-(2-Cyanoacetyl)benzonitrile",
    "duplicated_cas_no": "",
    "SMILES": "C(CC#N)(=O)C1=CC(C#N)=CC=C1",
    "meta_data": {
        "InChI": "InChI=1S/C10H6N2O/c11-5-4-10(13)9-3-1-2-8(6-9)7-12/h1-3,6H,4H2",
        "InChIKey": null,
        "Canonical SMILES": "N#CC1=CC=CC(=C1)C(=O)CC#N",
        "Molecular Formula": "C<sub>10</sub>H<sub>6</sub>N<sub>2</sub>O",
        "Molecular Mass": "170.17",
        "Melting Point": "189-190 °C"
    }
}