{
    "cas_no": "1614-82-0",
    "key_name": "1,4,5,8-Tetrahydro-2,7-dimethoxynaphthalene",
    "cn_name": "2,7-二甲氧基-1,4,5,8-四氢萘;",
    "alternate_name": "Naphthalene, 1,4,5,8-tetrahydro-2,7-dimethoxy-;1,4,5,8-Tetrahydro-2,7-dimethoxynaphthalene;2,7-Dimethoxy-1,4,5,8-tetrahydronaphthalene",
    "duplicated_cas_no": "",
    "SMILES": "O(C)C=1CC2=C(CC=C(OC)C2)CC1",
    "meta_data": {
        "InChI": "InChI=1S/C12H16O2/c1-13-11-5-3-9-4-6-12(14-2)8-10(9)7-11/h5-6H,3-4,7-8H2,1-2H3",
        "InChIKey": null,
        "Canonical SMILES": "O(C1=CCC2=C(C1)CC(OC)=CC2)C",
        "Molecular Formula": "C<sub>12</sub>H<sub>16</sub>O<sub>2</sub>",
        "Molecular Mass": "192.25",
        "Melting Point": "67-68 °C"
    }
}