{
    "cas_no": "5470-82-6",
    "key_name": "8-Amino-7-methylquinoline",
    "cn_name": "8-氨基-7-甲基喹啉;",
    "alternate_name": "8-Quinolinamine, 7-methyl-;7-Methyl-8-quinolinamine;8-Amino-7-methylquinoline;NSC 27989;7-Methyl-8-aminoquinoline",
    "duplicated_cas_no": "",
    "SMILES": "NC=1C2=C(C=CC1C)C=CC=N2",
    "meta_data": {
        "InChI": "InChI=1S/C10H10N2/c1-7-4-5-8-3-2-6-12-10(8)9(7)11/h2-6H,11H2,1H3",
        "InChIKey": null,
        "Canonical SMILES": "N=1C=CC=C2C=CC(=C(N)C12)C",
        "Molecular Formula": "C<sub>10</sub>H<sub>10</sub>N<sub>2</sub>",
        "Molecular Mass": "158.20",
        "Melting Point": "41-43 °C"
    }
}