{
    "cas_no": "1813-60-1",
    "key_name": "Phosphonium, tetrabutyl-, tetrafluoroborate(1-) (1:1)",
    "cn_name": null,
    "alternate_name": "Phosphonium, tetrabutyl-, tetrafluoroborate(1-) (1:1);Phosphonium, tetrabutyl-, tetrafluoroborate(1-);Tetrabutylphosphonium tetrafluoroborate;Borate(1-), tetrafluoro-, tetrabutylphosphonium;Tetra-<em>n</em>-butylphosphonium tetrafluoroborate;PX 4FB;Hishicolin PX 4FB;Bu<sub>4</sub>PBF<sub>4</sub>",
    "duplicated_cas_no": "849418-65-1",
    "SMILES": "[P+](CCCC)(CCCC)(CCCC)CCCC.[B+3]([F-])([F-])([F-])[F-]",
    "meta_data": {
        "InChI": "InChI=1S/C16H36P.BF4/c1-5-9-13-17(14-10-6-2,15-11-7-3)16-12-8-4;2-1(3,4)5/h5-16H2,1-4H3;/q+1;-1",
        "InChIKey": null,
        "Canonical SMILES": "[F-][B+3]([F-])([F-])[F-].CCCC[P+](CCCC)(CCCC)CCCC",
        "Molecular Formula": "C<sub>16</sub>H<sub>36</sub>P.BF<sub>4</sub>",
        "Molecular Mass": "",
        "Melting Point": "98 °C"
    }
}