{
    "cas_no": "1605-65-8",
    "key_name": "<em>N</em>,<em>N</em>,<em>N</em>′,<em>N</em>′-Tetramethylphosphorodiamidic chloride",
    "cn_name": "双(二甲胺基)氯酸磷;双(二甲胺基)氯酸磷;",
    "alternate_name": "Phosphorodiamidic chloride, <em>N</em>,<em>N</em>,<em>N</em>′,<em>N</em>′-tetramethyl-;Phosphorodiamidic chloride, tetramethyl-;<em>N</em>,<em>N</em>,<em>N</em>′,<em>N</em>′-Tetramethylphosphorodiamidic chloride;Bis(<em>N</em>,<em>N</em>-dimethylamino)phosphinic chloride;Tetramethylphosphorodiamidic chloride;Bis(dimethylamino)phosphoryl chloride;Bis(dimethylamino)chlorophosphine oxide;Tetramethylphosphorodiamidoyl chloride;Tetramethyldiamidophosphoryl chloride;Bis(dimethylamino)phosphinic chloride;Tetramethylphosphorochloridic diamide;Chlorobis(dimethylamino)phosphine oxide;Bis(dimethylamino)phosphinyl chloride;<em>N</em>,<em>N</em>,<em>N</em>′,<em>N</em>′-Tetramethyldiamidophosphorochloridate;NSC 30697",
    "duplicated_cas_no": "",
    "SMILES": "P(N(C)C)(N(C)C)(Cl)=O",
    "meta_data": {
        "InChI": "InChI=1S/C4H12ClN2OP/c1-6(2)9(5,8)7(3)4/h1-4H3",
        "InChIKey": null,
        "Canonical SMILES": "O=P(Cl)(N(C)C)N(C)C",
        "Molecular Formula": "C<sub>4</sub>H<sub>12</sub>ClN<sub>2</sub>OP",
        "Molecular Mass": "170.58",
        "Boiling Point": "102 °C @ Press: 6 Torr"
    }
}