{
    "cas_no": "496-67-3",
    "key_name": "Bromovalerylurea",
    "cn_name": "溴米索伐;溴异戊脲;alpha-溴异戊酰脲;N-(2-溴-3-甲基丁酰)脲;",
    "alternate_name": "Butanamide, <em>N</em>-(aminocarbonyl)-2-bromo-3-methyl-;Urea, (2-bromo-3-methylbutyryl)-;<em>N</em>-(Aminocarbonyl)-2-bromo-3-methylbutanamide;Alluval;Bromisoval;Bromisovalum;α-Bromo-β-dimethylpropanoylurea;α-Bromoisovaleroylurea;(α-Bromoisovaleryl)urea;2-Bromo-3-methylbutyrylurea;Bromovalerylurea;Bromural;Bromvalerylurea;Bromvaletone;Bromyl;Brovalin;Brovalurea;Brovarin;BVU;Dormigene;Isobromyl;Pivadorm;Pivadorn;Uvaleral;Bromovaleroylurea;α-Bromoisovaleric acid ureide;Bromaral;Bromoisovalum;Bromcarbamide;Bromvalurea;Bromoval;Calmotin;Bromocarbamide;α-Bromisovalerylurea;Bromizoval;Abroval;Dagrabromyl;Bromoxil;Dibroluur;Upiol;Alural;Bromovalerocarbamide;Bromisovalerylurea;2-Bromoisovalerylurea;(<em>RS</em>)-2-Bromoisovalerylurea;(±)-Bromisoval;Bromuvan;Somnurol;(2-Bromo-3-methylbutanoyl)urea;2-Bromo-<em>N</em>-carbamoyl-3-methylbutanamide;MeSH ID: D001968",
    "duplicated_cas_no": "12622-72-9;66101-52-8",
    "SMILES": "C(C(C(C)C)Br)(NC(N)=O)=O",
    "meta_data": {
        "InChI": "InChI=1S/C6H11BrN2O2/c1-3(2)4(7)5(10)9-6(8)11/h3-4H,1-2H3,(H3,8,9,10,11)",
        "InChIKey": null,
        "Canonical SMILES": "O=C(N)NC(=O)C(Br)C(C)C",
        "Molecular Formula": "C<sub>6</sub>H<sub>11</sub>BrN<sub>2</sub>O<sub>2</sub>",
        "Molecular Mass": "223.07",
        "Melting Point": "154 °C"
    }
}