{
    "cas_no": "40677-44-9",
    "key_name": "6-Amino-2,4-dichloro-3-methylphenol",
    "cn_name": "2-氨基-4,6-二氯-5-甲基苯酚;",
    "alternate_name": "Phenol, 6-amino-2,4-dichloro-3-methyl-;6-Amino-2,4-dichloro-3-methylphenol;2-Amino-4,6-dichloro-5-methylphenol;6-Amino-2,4-dichloro-<em>m</em>-cresol;3,5-Dichloro-2-hydroxy-4-methylaniline",
    "duplicated_cas_no": "",
    "SMILES": "CC1=C(Cl)C(O)=C(N)C=C1Cl",
    "meta_data": {
        "InChI": "InChI=1S/C7H7Cl2NO/c1-3-4(8)2-5(10)7(11)6(3)9/h2,11H,10H2,1H3",
        "InChIKey": null,
        "Canonical SMILES": "ClC=1C=C(N)C(O)=C(Cl)C1C",
        "Molecular Formula": "C<sub>7</sub>H<sub>7</sub>Cl<sub>2</sub>NO",
        "Molecular Mass": "192.04",
        "Melting Point": "133-134 °C"
    }
}