{
    "cas_no": "3069-30-5",
    "key_name": "4-Aminobutyltriethoxysilane",
    "cn_name": "4-氨基丁基三乙氧基硅烷;4-氨基丁基三乙氧基硅烷;",
    "alternate_name": "1-Butanamine, 4-(triethoxysilyl)-;Butylamine, 4-(triethoxysilyl)-;Silane, (4-aminobutyl)triethoxy-;4-(Triethoxysilyl)-1-butanamine;4-Aminobutyltriethoxysilane;δ-Aminobutyltriethoxysilane;4-(Triethoxysilyl)butylamine;4-(Triethoxysilyl)-1-aminobutane;SIA 0587.0;4-Butylaminotriethoxysilane;S 00550",
    "duplicated_cas_no": "",
    "SMILES": "[Si](CCCCN)(OCC)(OCC)OCC",
    "meta_data": {
        "InChI": "InChI=1S/C10H25NO3Si/c1-4-12-15(13-5-2,14-6-3)10-8-7-9-11/h4-11H2,1-3H3",
        "InChIKey": null,
        "Canonical SMILES": "O(CC)[Si](OCC)(OCC)CCCCN",
        "Molecular Formula": "C<sub>10</sub>H<sub>25</sub>NO<sub>3</sub>Si",
        "Molecular Mass": "235.40",
        "Boiling Point": "114-116 °C @ Press: 14 Torr",
        "Density": "0.941 g/cm³ @ Temp: 25 °C"
    }
}