{
    "cas_no": "771-99-3",
    "key_name": "4-Phenylpiperidine",
    "cn_name": "4-苯基哌啶;",
    "alternate_name": "Piperidine, 4-phenyl-;4-Phenylpiperidine;NSC 89743",
    "duplicated_cas_no": "",
    "SMILES": "C1(=CC=CC=C1)C2CCNCC2",
    "meta_data": {
        "InChI": "InChI=1S/C11H15N/c1-2-4-10(5-3-1)11-6-8-12-9-7-11/h1-5,11-12H,6-9H2",
        "InChIKey": null,
        "Canonical SMILES": "C=1C=CC(=CC1)C2CCNCC2",
        "Molecular Formula": "C<sub>11</sub>H<sub>15</sub>N",
        "Molecular Mass": "161.24",
        "Boiling Point": "257 °C",
        "Melting Point": "60.5 °C"
    }
}