{
    "cas_no": "3613-30-7",
    "key_name": "7-Methoxy-3,7-dimethyloctanal",
    "cn_name": "7-甲氧基-3,7-二甲基-辛醛;",
    "alternate_name": "Octanal, 7-methoxy-3,7-dimethyl-;7-Methoxy-3,7-dimethyloctanal;Methoxydihydrocitronellal;7-Methoxy-3,7-dimethyl-1-octanal;7-Methoxycitronellal;Methoxycitronellal;7-Methoxy-6,7-dihydrocitronellal",
    "duplicated_cas_no": "53023-57-7",
    "SMILES": "C(CCCC(CC=O)C)(OC)(C)C",
    "meta_data": {
        "InChI": "InChI=1S/C11H22O2/c1-10(7-9-12)6-5-8-11(2,3)13-4/h9-10H,5-8H2,1-4H3",
        "InChIKey": null,
        "Canonical SMILES": "O=CCC(C)CCCC(OC)(C)C",
        "Molecular Formula": "C<sub>11</sub>H<sub>22</sub>O<sub>2</sub>",
        "Molecular Mass": "186.29",
        "Boiling Point": "60 °C @ Press: 0.45 Torr"
    }
}