{
    "cas_no": "3336-39-8",
    "key_name": "3,5-Dibromo-4-methoxybenzonitrile",
    "cn_name": "3,5-二溴-4-甲氧基氰苯;",
    "alternate_name": "Benzonitrile, 3,5-dibromo-4-methoxy-;<em>p</em>-Anisonitrile, 3,5-dibromo-;3,5-Dibromo-4-methoxybenzonitrile;4-Methoxy-3,5-dibromobenzonitrile;Bromoxynil methyl",
    "duplicated_cas_no": "",
    "SMILES": "O(C)C1=C(Br)C=C(C#N)C=C1Br",
    "meta_data": {
        "InChI": "InChI=1S/C8H5Br2NO/c1-12-8-6(9)2-5(4-11)3-7(8)10/h2-3H,1H3",
        "InChIKey": null,
        "Canonical SMILES": "N#CC1=CC(Br)=C(OC)C(Br)=C1",
        "Molecular Formula": "C<sub>8</sub>H<sub>5</sub>Br<sub>2</sub>NO",
        "Molecular Mass": "290.94",
        "Melting Point": "119-120 °C"
    }
}