{
    "cas_no": "5416-71-7",
    "key_name": "3-(3,4-Dimethoxyphenyl)-1-phenyl-2-propen-1-one",
    "cn_name": null,
    "alternate_name": "2-Propen-1-one, 3-(3,4-dimethoxyphenyl)-1-phenyl-;Chalcone, 3,4-dimethoxy-;3-(3,4-Dimethoxyphenyl)-1-phenyl-2-propen-1-one;3,4-Dimethoxychalcone;3,4-Dimethoxystyryl phenyl ketone;1-Phenyl-3-(3,4-dimethoxyphenyl)-2-propen-1-one;NSC 11868;NSC 204995;NSC 643172;3-(3,4-Dimethoxyphenyl)-1-phenylprop-2-en-1-one",
    "duplicated_cas_no": "1159706-77-0",
    "SMILES": "C(=CC(=O)C1=CC=CC=C1)C2=CC(OC)=C(OC)C=C2",
    "meta_data": {
        "InChI": "InChI=1S/C17H16O3/c1-19-16-11-9-13(12-17(16)20-2)8-10-15(18)14-6-4-3-5-7-14/h3-12H,1-2H3",
        "InChIKey": null,
        "Canonical SMILES": "O=C(C=CC1=CC=C(OC)C(OC)=C1)C=2C=CC=CC2",
        "Molecular Formula": "C<sub>17</sub>H<sub>16</sub>O<sub>3</sub>",
        "Molecular Mass": "268.31",
        "Melting Point": "88 °C"
    }
}