{
    "cas_no": "6307-82-0",
    "key_name": "Methyl 2-chloro-5-nitrobenzoate",
    "cn_name": "2-氯-5-硝基苯甲酸甲酯;",
    "alternate_name": "Benzoic acid, 2-chloro-5-nitro-, methyl ester;Methyl 2-chloro-5-nitrobenzoate;2-Chloro-5-nitrobenzoic acid methyl ester;NSC 44287",
    "duplicated_cas_no": "",
    "SMILES": "C(OC)(=O)C1=CC(N(=O)=O)=CC=C1Cl",
    "meta_data": {
        "InChI": "InChI=1S/C8H6ClNO4/c1-14-8(11)6-4-5(10(12)13)2-3-7(6)9/h2-4H,1H3",
        "InChIKey": null,
        "Canonical SMILES": "O=C(OC)C1=CC(=CC=C1Cl)N(=O)=O",
        "Molecular Formula": "C<sub>8</sub>H<sub>6</sub>ClNO<sub>4</sub>",
        "Molecular Mass": "215.59",
        "Melting Point": "60-63 °C"
    }
}