{
    "cas_no": "627-98-5",
    "key_name": "5-Methyl-1-hexanol",
    "cn_name": "5-甲基-1-己醇;",
    "alternate_name": "1-Hexanol, 5-methyl-;5-Methyl-1-hexanol;5-Methylhexanol",
    "duplicated_cas_no": "",
    "SMILES": "C(CCCO)C(C)C",
    "meta_data": {
        "InChI": "InChI=1S/C7H16O/c1-7(2)5-3-4-6-8/h7-8H,3-6H2,1-2H3",
        "InChIKey": null,
        "Canonical SMILES": "OCCCCC(C)C",
        "Molecular Formula": "C<sub>7</sub>H<sub>16</sub>O",
        "Molecular Mass": "116.20",
        "Boiling Point": "170 °C",
        "Melting Point": "61-62 °C",
        "Density": "0.8192 g/cm³ @ Temp: 25 °C"
    }
}