{
    "cas_no": "31788-88-2",
    "key_name": "<em>N</em><sup>2</sup>,<em>N</em><sup>2</sup>-Dimethyl-1-phenyl-1,2-ethanediamine",
    "cn_name": null,
    "alternate_name": "1,2-Ethanediamine, <em>N</em><sup>2</sup>,<em>N</em><sup>2</sup>-dimethyl-1-phenyl-;Ethylenediamine, <em>N</em><sup>2</sup>,<em>N</em><sup>2</sup>-dimethyl-1-phenyl-;<em>N</em><sup>2</sup>,<em>N</em><sup>2</sup>-Dimethyl-1-phenyl-1,2-ethanediamine;<em>N</em>-(2-Dimethylamino-1-phenylethyl)amine;<em>N</em>′,<em>N</em>′-Dimethyl-1-phenylethane-1,2-diamine;N1,N1-Dimethyl-2-phenylethan-1,2-diamine;(2-Amino-2-phenylethyl)dimethylamine;1,2-Ethanediamine N2,N2-dimethyl-1-phenyl-",
    "duplicated_cas_no": "",
    "SMILES": "C(CN(C)C)(N)C1=CC=CC=C1",
    "meta_data": {
        "InChI": "InChI=1S/C10H16N2/c1-12(2)8-10(11)9-6-4-3-5-7-9/h3-7,10H,8,11H2,1-2H3",
        "InChIKey": null,
        "Canonical SMILES": "NC(C=1C=CC=CC1)CN(C)C",
        "Molecular Formula": "C<sub>10</sub>H<sub>16</sub>N<sub>2</sub>",
        "Molecular Mass": "164.25",
        "Boiling Point": "90-92 °C @ Press: 0.1 Torr"
    }
}