{
    "cas_no": "5927-18-4",
    "key_name": "Trimethyl phosphonoacetate",
    "cn_name": "三甲基膦酰基乙酸酯;",
    "alternate_name": "Acetic acid, 2-(dimethoxyphosphinyl)-, methyl ester;Acetic acid, phosphono-, trimethyl ester;Acetic acid, (dimethoxyphosphinyl)-, methyl ester;Methyl 2-(dimethylphosphono)acetate;[(Methoxycarbonyl)methyl]dimethylphosphonate;Methyl dimethylphosphonoacetate;Trimethyl phosphonoacetate;Phosphonoacetic acid trimethyl ester;Dimethyl (carbomethoxymethyl)phosphonate;Carbomethoxymethanephosphonic acid dimethyl ester;Methyl (dimethoxyphosphinyl)acetate;Dimethyl (methoxycarbonylmethyl)phosphonate;(Carboxymethyl)phosphonic acid trimethyl ester;Dimethyl methoxycarbonylmethanephosphonate;(Dimethoxyphosphinyl)acetic acid methyl ester;NSC 84262;Methyl 2-(dimethoxyphosphinyl)acetate;Methyl 2-(dimethoxyphosphoryl)acetate",
    "duplicated_cas_no": "51298-31-8",
    "SMILES": "P(CC(OC)=O)(OC)(OC)=O",
    "meta_data": {
        "InChI": "InChI=1S/C5H11O5P/c1-8-5(6)4-11(7,9-2)10-3/h4H2,1-3H3",
        "InChIKey": null,
        "Canonical SMILES": "O=C(OC)CP(=O)(OC)OC",
        "Molecular Formula": "C<sub>5</sub>H<sub>11</sub>O<sub>5</sub>P",
        "Molecular Mass": "182.11",
        "Boiling Point": "95 °C @ Press: 0.1 Torr",
        "Melting Point": "242 °C",
        "Density": "1.3166 g/cm³ @ Temp: 20 °C"
    }
}