{
    "cas_no": "3665-80-3",
    "key_name": "<em>N</em>-Ethyl-4-nitroaniline",
    "cn_name": "N-乙基-4-硝基苯胺;",
    "alternate_name": "Benzenamine, <em>N</em>-ethyl-4-nitro-;Aniline, <em>N</em>-ethyl-<em>p</em>-nitro-;<em>N</em>-Ethyl-4-nitrobenzenamine;<em>N</em>-Ethyl-4-nitroaniline",
    "duplicated_cas_no": "",
    "SMILES": "N(=O)(=O)C1=CC=C(NCC)C=C1",
    "meta_data": {
        "InChI": "InChI=1S/C8H10N2O2/c1-2-9-7-3-5-8(6-4-7)10(11)12/h3-6,9H,2H2,1H3",
        "InChIKey": null,
        "Canonical SMILES": "O=N(=O)C1=CC=C(C=C1)NCC",
        "Molecular Formula": "C<sub>8</sub>H<sub>10</sub>N<sub>2</sub>O<sub>2</sub>",
        "Molecular Mass": "166.18",
        "Melting Point": "96-98 °C",
        "Density": "1.293 g/cm³"
    }
}