{
    "cas_no": "5817-39-0",
    "key_name": "3′,5′,3-Triiodothyronine",
    "cn_name": null,
    "alternate_name": "<span class=\"text-smallcaps\">L</span>-Tyrosine, <em>O</em>-(4-hydroxy-3,5-diiodophenyl)-3-iodo-;Alanine, 3-[4-(4-hydroxy-3,5-diiodophenoxy)-3-iodophenyl]-, <span class=\"text-smallcaps\">L</span>-;<em>O</em>-(4-Hydroxy-3,5-diiodophenyl)-3-iodo-<span class=\"text-smallcaps\">L</span>-tyrosine;3,3′,5′-Triiodo-<span class=\"text-smallcaps\">L</span>-thyronine;3,3′,5′-Triiodothyronine;rT<sub>3</sub>;Reverse T<sub>3</sub>;Reverse triiodothyronine;3′,5′,3-Triiodothyronine;Reverse <span class=\"text-smallcaps\">L</span>-triiodothyronine;Isoliothyronine;3,3′,5′-<span class=\"text-smallcaps\">L</span>-Triiodothyronine;3,3′,5′-T<sub>3</sub>;(2<em>S</em>)-2-Amino-3-[4-(4-hydroxy-3,5-diiodophenoxy)-3-iodophenyl]propanoic acid;(<em>S</em>)-2-Amino-3-(4-(4-hydroxy-3,5-diiodophenoxy)-3-iodophenyl)propanoic acid;(<em>S</em>)-2-Amino-3-(4-(4-hydroxy-3,5-diiodophenoxy)-3-iodophenyl)propanoicacid",
    "duplicated_cas_no": "2820-50-0",
    "SMILES": "O(C1=C(I)C=C(C[C@@H](C(O)=O)N)C=C1)C2=CC(I)=C(O)C(I)=C2",
    "meta_data": {
        "InChI": "InChI=1S/C15H12I3NO4/c16-9-3-7(4-12(19)15(21)22)1-2-13(9)23-8-5-10(17)14(20)11(18)6-8/h1-3,5-6,12,20H,4,19H2,(H,21,22)/t12-/m0/s1",
        "InChIKey": null,
        "Canonical SMILES": "O=C(O)C(N)CC1=CC=C(OC2=CC(I)=C(O)C(I)=C2)C(I)=C1",
        "Molecular Formula": "C<sub>15</sub>H<sub>12</sub>I<sub>3</sub>NO<sub>4</sub>",
        "Molecular Mass": "650.97",
        "Melting Point": "206 °C (decomp)"
    }
}