{
    "cas_no": "35575-96-3",
    "key_name": "Azamethiphos",
    "cn_name": "甲基吡啶磷;甲基吡噁磷;唑啶磷;O,O-二甲基-S-[(6-氯-2,3-二氢-2-氧-1,3-噁唑并[4,5-b]吡啶-3-基)甲基]硫代;",
    "alternate_name": "Phosphorothioic acid, <em>S</em>-[(6-chloro-2-oxooxazolo[4,5-<em>b</em>]pyridin-3(2<em>H</em>)-yl)methyl] <em>O</em>,<em>O</em>-dimethyl ester;Oxazolo[4,5-<em>b</em>]pyridine, phosphorothioic acid deriv.;Azamethiphos;Ciba-Geigy 18809;CGA 18809;Snip;Azametiphos;Salmosan",
    "duplicated_cas_no": "51274-12-5;59217-99-1",
    "SMILES": "C(SP(OC)(OC)=O)N1C=2C(OC1=O)=CC(Cl)=CN2",
    "meta_data": {
        "InChI": "InChI=1S/C9H10ClN2O5PS/c1-15-18(14,16-2)19-5-12-8-7(17-9(12)13)3-6(10)4-11-8/h3-4H,5H2,1-2H3",
        "InChIKey": null,
        "Canonical SMILES": "O=C1OC2=CC(Cl)=CN=C2N1CSP(=O)(OC)OC",
        "Molecular Formula": "C<sub>9</sub>H<sub>10</sub>ClN<sub>2</sub>O<sub>5</sub>PS",
        "Molecular Mass": "324.68",
        "Melting Point": "89 °C"
    }
}