{
    "cas_no": "2634-33-5",
    "key_name": "1,2-Benzisothiazol-3(2<em>H</em>)-one",
    "cn_name": "1,2-苯并异噻唑-3-酮;BIT;",
    "alternate_name": "1,2-Benzisothiazol-3(2<em>H</em>)-one;1,2-Benzisothiazolin-3-one;1,2-Benzisothiazolone;3-Hydroxy-1,2-benzisothiazole;Proxel PL;Proxel Press Paste;Proxel XL 2;Proxel AB;Proxel GXL;Topcide 600;San-aibac AP;Proxel BDN;Proxel BD 20;1,2-Benzoisothiazol-3-one;XBINX;Proxel BD;Benzisothiazolone;Proxel CF;1,2-Benzisothiazol-3-one;Proxel TN;Bestcide 200K;Parmetol B 70;BIT;Proxel LV-S;Proxel Press Paste D;Apizas AP-DS;Proxel HL 2;Benzocil;Denicide BIT;SD 202;Nuosept 495;Nipacide BIT 20;Nuosept 491;Nipacide BIT;Canguard BIT;Nuosept 485;SD 202 (bactericide);Benzo[<em>d</em>]isothiazol-3(2<em>H</em>)-one;Denicide BIT 20N;Acticide BIT;Benzoisothiazol-3-one;Bioban BIT 20DPG;Canguard BIT 20DPG;Proxel Ultra 5;Parmetol D 11;Canguard Ultra BIT 20LE;Koralone B 119;2,3-Dihydrobenzisothiazol-3-one;Benzisothiazolin-3-one;GXL;Preventol BIT 20D;Troysan 1050;Acticide BW 20;BIT 20;Nipacide BIT 10W;BIT 10W;Proxel XL;AQ;AQ (antibacterial);Proxel GXL(S);Canguard BIT 20AS-E;Acticide B 20N;Bioban Ultra Bit;Rocima 640;Proxel LV;Proxel AQ;Benzisothiazolinone;Mergal 753;Cation BIT 20;1,2-benzothiazoline-3-one;1,2-benzothiazolin-3-one;Acticide B 20;B 20;Bioban Ultra BIT 20;Microcave BIT;Nuosept BIT Technical;Promex 20D;Colipa P 96;BIT 20LE;2,3-Dihydro-1,2-benzothiazol-3-one;Proxel XL-II;Proxel XL 11;Biox P 520W;Nuosept 498G;P 520W;BIT 521;BIT 665;XL 2;Acticide BIT 20N;Preventol BIT 20N;AZVIII 40A;Nipacide BIT 40;Lamfix SK;San-ai Bac R 30;Proxel GLX;Mergal K 20;BT 550;Proxel;Bitetrol T 20;LD 85;Proxel GL;Skybio B 20;Preventol BIT 10",
    "duplicated_cas_no": "40991-37-5;54392-14-2;73904-70-8;75037-67-1;101964-01-6;552320-00-0;919284-21-2;934197-15-6;1094749-54-8;1148150-72-4;1376937-61-9;1399460-92-4;1623463-70-6;1813531-93-9;1982328-85-7;2376801-76-0;3040151-02-5",
    "SMILES": "O=C1C=2C(=CC=CC2)SN1",
    "meta_data": {
        "InChI": "InChI=1S/C7H5NOS/c9-7-5-3-1-2-4-6(5)10-8-7/h1-4H,(H,8,9)",
        "InChIKey": null,
        "Canonical SMILES": "O=C1NSC=2C=CC=CC21",
        "Molecular Formula": "C<sub>7</sub>H<sub>5</sub>NOS",
        "Molecular Mass": "151.19",
        "Melting Point": "157-158 °C"
    }
}