{
    "cas_no": "628-77-3",
    "key_name": "1,5-Diiodopentane",
    "cn_name": "1,5-二碘戊烷;",
    "alternate_name": "Pentane, 1,5-diiodo-;1,5-Diiodopentane;Pentamethylene diiodide;α,ω-Diiodopentane;NSC 9457",
    "duplicated_cas_no": "",
    "SMILES": "C(CCI)CCI",
    "meta_data": {
        "InChI": "InChI=1S/C5H10I2/c6-4-2-1-3-5-7/h1-5H2",
        "InChIKey": null,
        "Canonical SMILES": "ICCCCCI",
        "Molecular Formula": "C<sub>5</sub>H<sub>10</sub>I<sub>2</sub>",
        "Molecular Mass": "323.94",
        "Boiling Point": "87 °C @ Press: 0.5 Torr",
        "Melting Point": "9 °C"
    }
}