{
    "cas_no": "3902-71-4",
    "key_name": "Trimethylpsoralen",
    "cn_name": "三甲沙林;4,5,8-三甲基补骨脂素;",
    "alternate_name": "7<em>H</em>-Furo[3,2-<em>g</em>][1]benzopyran-7-one, 2,5,9-trimethyl-;5-Benzofuranacrylic acid, 6-hydroxy-β,2,7-trimethyl-, δ-lactone;2,5,9-Trimethyl-7<em>H</em>-furo[3,2-<em>g</em>][1]benzopyran-7-one;4,5′,8-Trimethylpsoralen;Trioxsalen;Trisoralen;4,5′,8-Trimethylpsoralene;Trimethylpsoralen;4,2′,8-Trimethylpsoralen;Trioxysalen;NSC 71047;TMP;2,5,9-Trimethyl-7<em>H</em>-furo[3,2-<em>g</em>]chromen-7-one;2,5,9-Trimethylfuro[3,2-<em>g</em>]chromen-7-one",
    "duplicated_cas_no": "",
    "SMILES": "CC=1C2=C(C=C3C1OC(C)=C3)C(C)=CC(=O)O2",
    "meta_data": {
        "InChI": "InChI=1S/C14H12O3/c1-7-4-12(15)17-14-9(3)13-10(6-11(7)14)5-8(2)16-13/h4-6H,1-3H3",
        "InChIKey": null,
        "Canonical SMILES": "O=C1OC2=C(C=C3C=C(OC3=C2C)C)C(=C1)C",
        "Molecular Formula": "C<sub>14</sub>H<sub>12</sub>O<sub>3</sub>",
        "Molecular Mass": "228.24",
        "Melting Point": "234.5 °C"
    }
}