{
    "cas_no": "19829-72-2",
    "key_name": "2,3-Dihydroxy-1,4-benzenedicarboxylic acid",
    "cn_name": null,
    "alternate_name": "1,4-Benzenedicarboxylic acid, 2,3-dihydroxy-;Terephthalic acid, 2,3-dihydroxy-;2,3-Dihydroxy-1,4-benzenedicarboxylic acid;2,3-Dihydroxyterephthalic acid;NSC 38869;2,3-Dihydroxy-<em>p</em>-benzenediacetic acid",
    "duplicated_cas_no": "",
    "SMILES": "C(O)(=O)C1=C(O)C(O)=C(C(O)=O)C=C1",
    "meta_data": {
        "InChI": "InChI=1S/C8H6O6/c9-5-3(7(11)12)1-2-4(6(5)10)8(13)14/h1-2,9-10H,(H,11,12)(H,13,14)",
        "InChIKey": null,
        "Canonical SMILES": "O=C(O)C1=CC=C(C(=O)O)C(O)=C1O",
        "Molecular Formula": "C<sub>8</sub>H<sub>6</sub>O<sub>6</sub>",
        "Molecular Mass": "198.13",
        "Melting Point": "293 °C"
    }
}