{
    "cas_no": "5798-75-4",
    "key_name": "Ethyl 4-bromobenzoate",
    "cn_name": "4-溴苯甲酸乙酯;对溴苯甲酸乙酯;",
    "alternate_name": "Benzoic acid, 4-bromo-, ethyl ester;Benzoic acid, <em>p</em>-bromo-, ethyl ester;Ethyl <em>p</em>-bromobenzoate;<em>p</em>-(Ethoxycarbonyl)phenyl bromide;Ethyl 4-bromobenzoate;4-Bromobenzoic acid ethyl ester;4-Carbethoxyphenyl bromide;NSC 67387;4-(Ethoxycarbonyl)-1-bromobenzene;<em>p</em>-Bromobenzoic acid ethyl ester",
    "duplicated_cas_no": "",
    "SMILES": "C(OCC)(=O)C1=CC=C(Br)C=C1",
    "meta_data": {
        "InChI": "InChI=1S/C9H9BrO2/c1-2-12-9(11)7-3-5-8(10)6-4-7/h3-6H,2H2,1H3",
        "InChIKey": null,
        "Canonical SMILES": "O=C(OCC)C1=CC=C(Br)C=C1",
        "Molecular Formula": "C<sub>9</sub>H<sub>9</sub>BrO<sub>2</sub>",
        "Molecular Mass": "229.07",
        "Boiling Point": "263 °C"
    }
}