{
    "cas_no": "581-45-3",
    "key_name": "1,2,3,4,5,6-Hexahydro-[4,4′]bipyridinyl",
    "cn_name": null,
    "alternate_name": "Pyridine, 4-(4-piperidinyl)-;Piperidine, 4-(4-pyridyl)-;4-(4-Piperidinyl)pyridine;4-(4-Pyridyl)piperidine;4-(4′-Piperidyl)pyridine;4-(4-Pyridinyl)piperidine;1,2,3,4,5,6-Hexahydro-[4,4′]bipyridinyl;4-(4-Piperidyl)pyridine",
    "duplicated_cas_no": "",
    "SMILES": "C1(CCNCC1)C=2C=CN=CC2",
    "meta_data": {
        "InChI": "InChI=1S/C10H14N2/c1-5-11-6-2-9(1)10-3-7-12-8-4-10/h1-2,5-6,10,12H,3-4,7-8H2",
        "InChIKey": null,
        "Canonical SMILES": "N=1C=CC(=CC1)C2CCNCC2",
        "Molecular Formula": "C<sub>10</sub>H<sub>14</sub>N<sub>2</sub>",
        "Molecular Mass": "162.23",
        "Melting Point": "77-78 °C"
    }
}