{
    "cas_no": "24425-13-6",
    "key_name": "2-(1,1-Dimethylethyl)-1<em>H</em>-benzimidazole",
    "cn_name": "2-叔丁基苯咪唑;",
    "alternate_name": "1<em>H</em>-Benzimidazole, 2-(1,1-dimethylethyl)-;Benzimidazole, 2-<em>tert</em>-butyl-;2-(1,1-Dimethylethyl)-1<em>H</em>-benzimidazole;2-<em>tert</em>-Butylbenzimidazole;NSC 34830;2-<em>tert</em>-Butyl-1<em>H</em>-benzimidazole;2-<em>tert</em>-Butyl-1<em>H</em>-1,3-benzodiazole",
    "duplicated_cas_no": "",
    "SMILES": "C(C)(C)(C)C=1NC=2C(N1)=CC=CC2",
    "meta_data": {
        "InChI": "InChI=1S/C11H14N2/c1-11(2,3)10-12-8-6-4-5-7-9(8)13-10/h4-7H,1-3H3,(H,12,13)",
        "InChIKey": null,
        "Canonical SMILES": "N=1C=2C=CC=CC2NC1C(C)(C)C",
        "Molecular Formula": "C<sub>11</sub>H<sub>14</sub>N<sub>2</sub>",
        "Molecular Mass": "174.24",
        "Melting Point": "&gt;300 °C"
    }
}