{
    "cas_no": "18437-66-6",
    "key_name": "Carbamic acid, <em>N</em>-(4-chlorophenyl)-, 1,1-dimethylethyl ester",
    "cn_name": null,
    "alternate_name": "Carbamic acid, <em>N</em>-(4-chlorophenyl)-, 1,1-dimethylethyl ester;Carbanilic acid, <em>p</em>-chloro-, <em>tert</em>-butyl ester;Carbamic acid, (4-chlorophenyl)-, 1,1-dimethylethyl ester;<em>tert</em>-Butyl <em>N</em>-(<em>p</em>-chlorophenyl)carbamate;<em>tert</em>-Butyl <em>N</em>-(4-chlorophenyl)carbamate;<em>N</em>-<em>tert</em>-Butoxycarbonyl-4-chloroaniline;<em>tert</em>-Butyl 4-chlorophenylcarbamate;(4-Chlorophenyl)carbamic acid tert-butyl ester;<em>N</em>-Boc-4-chloroaniline;1,1-Dimethylethyl <em>N</em>-(4-chlorophenyl)carbamate;4-Chloro-<em>N</em>-boc-aniline;<em>p</em>-Chloro-<em>N</em>-<em>tert</em>-butoxycarbonylaniline",
    "duplicated_cas_no": "",
    "SMILES": "N(C(OC(C)(C)C)=O)C1=CC=C(Cl)C=C1",
    "meta_data": {
        "InChI": "InChI=1S/C11H14ClNO2/c1-11(2,3)15-10(14)13-9-6-4-8(12)5-7-9/h4-7H,1-3H3,(H,13,14)",
        "InChIKey": null,
        "Canonical SMILES": "O=C(OC(C)(C)C)NC1=CC=C(Cl)C=C1",
        "Molecular Formula": "C<sub>11</sub>H<sub>14</sub>ClNO<sub>2</sub>",
        "Molecular Mass": "227.69",
        "Melting Point": "105 °C"
    }
}