{
    "cas_no": "628-92-2",
    "key_name": "Cycloheptene",
    "cn_name": "环庚烯;",
    "alternate_name": "Cycloheptene;<em>cis</em>-Cycloheptene;(1<em>Z</em>)-Cycloheptene;NSC 5162",
    "duplicated_cas_no": "122664-16-8;21367-42-0;33004-07-8;45510-00-7;79535-51-6;80444-57-1;88073-15-8;152016-34-7",
    "SMILES": "C1CCC=CCC1",
    "meta_data": {
        "InChI": "InChI=1S/C7H12/c1-2-4-6-7-5-3-1/h1-2H,3-7H2",
        "InChIKey": null,
        "Canonical SMILES": "C1=CCCCCC1",
        "Molecular Formula": "C<sub>7</sub>H<sub>12</sub>",
        "Molecular Mass": "96.17",
        "Boiling Point": "115 °C",
        "Melting Point": "-56 °C",
        "Density": "0.8239 g/cm³ @ Temp: 20 °C"
    }
}