{
    "cas_no": "345-94-8",
    "key_name": "2-Bromo-1-(4-fluorophenyl)-1-propanone",
    "cn_name": null,
    "alternate_name": "1-Propanone, 2-bromo-1-(4-fluorophenyl)-;Propiophenone, 2-bromo-4′-fluoro-;2-Bromo-1-(4-fluorophenyl)-1-propanone;α-Bromo-4-fluoropropiophenone;2-Bromo-1-(4-fluorophenyl)propan-1-one",
    "duplicated_cas_no": "",
    "SMILES": "C(C(Br)C)(=O)C1=CC=C(F)C=C1",
    "meta_data": {
        "InChI": "InChI=1S/C9H8BrFO/c1-6(10)9(12)7-2-4-8(11)5-3-7/h2-6H,1H3",
        "InChIKey": null,
        "Canonical SMILES": "O=C(C1=CC=C(F)C=C1)C(Br)C",
        "Molecular Formula": "C<sub>9</sub>H<sub>8</sub>BrFO",
        "Molecular Mass": "231.06",
        "Boiling Point": "120-123 °C @ Press: 13 Torr"
    }
}