{
    "cas_no": "32860-56-3",
    "key_name": "6-<em>O</em>-Tosyl-α-cyclodextrin",
    "cn_name": null,
    "alternate_name": "α-Cyclodextrin, 6<sup>A</sup>-(4-methylbenzenesulfonate);α-Cyclodextrin, 6-<em>p</em>-toluenesulfonate;2,4,7,9,12,14,17,19,22,24,27,29-Dodecaoxaheptacyclo[26.2.2.2<sup>3,6</sup>.2<sup>8,11</sup>.2<sup>13,16</sup>.2<sup>18,21</sup>.2<sup>23,26</sup>]dotetracontane, α-cyclodextrin deriv.;6-<em>O</em>-Tosyl-α-cyclodextrin;Mono-6-<em>O</em>-<em>p</em>-toluenesulfonyl-α-cyclodextrin",
    "duplicated_cas_no": "1333143-76-2",
    "SMILES": "C(OS(=O)(=O)C1=CC=C(C)C=C1)[C@@H]2[C@]3(O[C@]4(O[C@H](CO)[C@]([C@H](O)[C@H]4O)(O[C@]5(O[C@H](CO)[C@]([C@H](O)[C@H]5O)(O[C@]6(O[C@H](CO)[C@@](O[C@]7(O[C@H](CO)[C@@](O[C@]8(O[C@H](CO)[C@@](O[C@@](O2)([C@H](O)[C@H]3O)[H])([C@H](O)[C@H]8O)[H])[H])([C@H](O)[C@H]7O)[H])[H])([C@H](O)[C@H]6O)[H])[H])[H])[H])[H])[H])[H]",
    "meta_data": {
        "InChI": "InChI=1S/C43H66O32S/c1-12-2-4-13(5-3-12)76(61,62)63-11-19-37-25(54)31(60)43(69-19)74-36-18(10-48)67-41(29(58)23(36)52)72-34-16(8-46)65-39(27(56)21(34)50)70-32-14(6-44)64-38(26(55)20(32)49)71-33-15(7-45)66-40(28(57)22(33)51)73-35-17(9-47)68-42(75-37)30(59)24(35)53/h2-5,14-60H,6-11H2,1H3/t14-,15-,16-,17-,18-,19-,20-,21-,22-,23-,24-,25-,26-,27-,28-,29-,30-,31-,32-,33-,34-,35-,36-,37-,38-,39-,40-,41-,42-,43-/m1/s1",
        "InChIKey": null,
        "Canonical SMILES": "O=S(=O)(OCC1OC2OC3C(O)C(O)C(OC3CO)OC4C(O)C(O)C(OC4CO)OC5C(O)C(O)C(OC5CO)OC6C(O)C(O)C(OC6CO)OC7C(O)C(O)C(OC7CO)OC1C(O)C2O)C8=CC=C(C=C8)C",
        "Molecular Formula": "C<sub>43</sub>H<sub>66</sub>O<sub>32</sub>S",
        "Molecular Mass": "1127.03",
        "Melting Point": "221-225 °C"
    }
}