{
    "cas_no": "14277-97-5",
    "key_name": "(-)-Domoic acid",
    "cn_name": "软骨藻酸;二甲乙二烯咯三酸;",
    "alternate_name": "3-Pyrrolidineacetic acid, 2-carboxy-4-[(1<em>Z</em>,3<em>E</em>,5<em>R</em>)-5-carboxy-1-methyl-1,3-hexadien-1-yl]-, (2<em>S</em>,3<em>S</em>,4<em>S</em>)-;3-Pyrrolidineacetic acid, 2-carboxy-4-(5-carboxy-1-methyl-1,3-hexadienyl)-, [2<em>S</em>-[2α,3β,4β(1<em>Z</em>,3<em>E</em>,5<em>S</em>*)]]-;Domoic acid;3-Pyrrolidineacetic acid, 2-carboxy-4-[(1<em>Z</em>,3<em>E</em>,5<em>R</em>)-5-carboxy-1-methyl-1,3-hexadienyl]-, (2<em>S</em>,3<em>S</em>,4<em>S</em>)-;(2<em>S</em>,3<em>S</em>,4<em>S</em>)-2-Carboxy-4-[(1<em>Z</em>,3<em>E</em>,5<em>R</em>)-5-carboxy-1-methyl-1,3-hexadien-1-yl]-3-pyrrolidineacetic acid;<span class=\"text-smallcaps\">L</span>-Domoic acid;(-)-Domoic acid;NSC 288031",
    "duplicated_cas_no": "485-62-1;11019-16-2",
    "SMILES": "C(C(O)=O)[C@H]1[C@@H](\\C(=C/C=C/[C@H](C(O)=O)C)\\C)CN[C@@H]1C(O)=O",
    "meta_data": {
        "InChI": "InChI=1S/C15H21NO6/c1-8(4-3-5-9(2)14(19)20)11-7-16-13(15(21)22)10(11)6-12(17)18/h3-5,9-11,13,16H,6-7H2,1-2H3,(H,17,18)(H,19,20)(H,21,22)/b5-3+,8-4-/t9-,10+,11-,13+/m1/s1",
        "InChIKey": null,
        "Canonical SMILES": "O=C(O)CC1C(NCC1C(=CC=CC(C(=O)O)C)C)C(=O)O",
        "Molecular Formula": "C<sub>15</sub>H<sub>21</sub>NO<sub>6</sub>",
        "Molecular Mass": "311.33",
        "Melting Point": "217 °C (decomp)"
    }
}