{
    "cas_no": "51225-30-0",
    "key_name": "Wighteone",
    "cn_name": null,
    "alternate_name": "4<em>H</em>-1-Benzopyran-4-one, 5,7-dihydroxy-3-(4-hydroxyphenyl)-6-(3-methyl-2-buten-1-yl)-;4<em>H</em>-1-Benzopyran-4-one, 5,7-dihydroxy-3-(4-hydroxyphenyl)-6-(3-methyl-2-butenyl)-;5,7-Dihydroxy-3-(4-hydroxyphenyl)-6-(3-methyl-2-buten-1-yl)-4<em>H</em>-1-benzopyran-4-one;Erythrinin B;Wighteone;5,7,4′-Trihydroxy-6-prenylisoflavone;6-Prenylgenistein;5,7-Dihydroxy-3-(4-hydroxyphenyl)-6-(3-methylbut-2-en-1-yl)-4<em>H</em>-chromen-4-one",
    "duplicated_cas_no": "",
    "SMILES": "O=C1C=2C(=CC(O)=C(CC=C(C)C)C2O)OC=C1C3=CC=C(O)C=C3",
    "meta_data": {
        "InChI": "InChI=1S/C20H18O5/c1-11(2)3-8-14-16(22)9-17-18(19(14)23)20(24)15(10-25-17)12-4-6-13(21)7-5-12/h3-7,9-10,21-23H,8H2,1-2H3",
        "InChIKey": null,
        "Canonical SMILES": "O=C1C(=COC2=CC(O)=C(C(O)=C12)CC=C(C)C)C=3C=CC(O)=CC3",
        "Molecular Formula": "C<sub>20</sub>H<sub>18</sub>O<sub>5</sub>",
        "Molecular Mass": "338.35",
        "Melting Point": "227 °C"
    }
}