{
    "cas_no": "112-49-2",
    "key_name": "Triglyme",
    "cn_name": "三乙二醇二甲醚;三甘醇二甲醚;",
    "alternate_name": "2,5,8,11-Tetraoxadodecane;Ethane, 1,2-bis(2-methoxyethoxy)-;Ansul Ether 161;Triglyme;1,2-Bis(2-methoxyethoxy)ethane;Triethylene glycol dimethyl ether;Glyme 4;Methyltriglyme;Hisolve MTM;NSC 66400;DMTG;1-Methoxy-2-[2-(2-methoxyethoxy)ethoxy]ethane;Hisorb MTM",
    "duplicated_cas_no": "70992-85-7;2377493-99-5",
    "SMILES": "C(COCCOC)OCCOC",
    "meta_data": {
        "InChI": "InChI=1S/C8H18O4/c1-9-3-5-11-7-8-12-6-4-10-2/h3-8H2,1-2H3",
        "InChIKey": null,
        "Canonical SMILES": "O(C)CCOCCOCCOC",
        "Molecular Formula": "C<sub>8</sub>H<sub>18</sub>O<sub>4</sub>",
        "Molecular Mass": "178.23",
        "Boiling Point": "216 °C",
        "Melting Point": "-45 °C",
        "Density": "0.98569 g/cm³ (liquid) @ Temp: 20.000 °C"
    }
}