{
    "cas_no": "623-30-3",
    "key_name": "2-Furanacrolein",
    "cn_name": "2-呋喃丙烯醛;3-(2-呋喃基)-2-丙烯醛;",
    "alternate_name": "2-Propenal, 3-(2-furanyl)-;2-Furanacrolein;3-(2-Furanyl)-2-propenal;β-2-Furylacrolein;3-(2-Furyl)acrolein;3-(α-Furyl)propenal;1-(2-Furanyl)-1-propen-3-al;3-(2-Furyl)-2-propenal;2-(2-Formylvinyl)furan;NSC 2061;NSC 26338;3-(2-Furan)-acrolein;3-(2-Furanyl)acrolein",
    "duplicated_cas_no": "",
    "SMILES": "C(=CC=O)C1=CC=CO1",
    "meta_data": {
        "InChI": "InChI=1S/C7H6O2/c8-5-1-3-7-4-2-6-9-7/h1-6H",
        "InChIKey": null,
        "Canonical SMILES": "O=CC=CC=1OC=CC1",
        "Molecular Formula": "C<sub>7</sub>H<sub>6</sub>O<sub>2</sub>",
        "Molecular Mass": "122.12",
        "Boiling Point": "135 °C",
        "Melting Point": "54 °C"
    }
}