{
    "cas_no": "52805-46-6",
    "key_name": "3-Hydroxy-4-methoxybenzonitrile",
    "cn_name": "3-羟基-4-甲氧基苯腈;",
    "alternate_name": "Benzonitrile, 3-hydroxy-4-methoxy-;3-Hydroxy-4-methoxybenzonitrile;2-Methoxy-5-cyanophenol;5-Cyano-2-methoxyphenol",
    "duplicated_cas_no": "",
    "SMILES": "C(#N)C1=CC(O)=C(OC)C=C1",
    "meta_data": {
        "InChI": "InChI=1S/C8H7NO2/c1-11-8-3-2-6(5-9)4-7(8)10/h2-4,10H,1H3",
        "InChIKey": null,
        "Canonical SMILES": "N#CC1=CC=C(OC)C(O)=C1",
        "Molecular Formula": "C<sub>8</sub>H<sub>7</sub>NO<sub>2</sub>",
        "Molecular Mass": "149.15",
        "Melting Point": "124 °C"
    }
}