{
    "cas_no": "4940-11-8",
    "key_name": "Ethyl maltol",
    "cn_name": "乙基麦芽酚;2-乙基-3-羟基-4-吡喃酮;",
    "alternate_name": "4<em>H</em>-Pyran-4-one, 2-ethyl-3-hydroxy-;2-Ethyl-3-hydroxy-4<em>H</em>-pyran-4-one;2-Ethylpyromeconic acid;3-Hydroxy-2-ethyl-1,4-pyrone;3-Hydroxy-2-ethyl-4-pyrone;3-Hydroxy-2-ethyl-γ-pyrone;2-Ethyl-3-hydroxy-4-pyrone;Veltol plus;Ethyl maltol;NSC 638851;2-Ethyl-3-hydroxypyran-4-one;2-Ethyl-3-hydroxy-pyran-4-one",
    "duplicated_cas_no": "",
    "SMILES": "C(C)C1=C(O)C(=O)C=CO1",
    "meta_data": {
        "InChI": "InChI=1S/C7H8O3/c1-2-6-7(9)5(8)3-4-10-6/h3-4,9H,2H2,1H3",
        "InChIKey": null,
        "Canonical SMILES": "O=C1C=COC(=C1O)CC",
        "Molecular Formula": "C<sub>7</sub>H<sub>8</sub>O<sub>3</sub>",
        "Molecular Mass": "140.14",
        "Melting Point": "89-93 °C"
    }
}