{
    "cas_no": "3604-87-3",
    "key_name": "α-Ecdysone",
    "cn_name": "蜕皮激素;alpha-蜕皮激素;(2b,3b,5b,22R)-2,3,14,22,25-五羟基胆甾-7-烯-6-酮;",
    "alternate_name": "Cholest-7-en-6-one, 2,3,14,22,25-pentahydroxy-, (2β,3β,5β,22<em>R</em>)-;5β-Cholest-7-en-6-one, 2β,3β,14,22,25-pentahydroxy-, (20<em>S</em>,22<em>R</em>)-;(2β,3β,5β,22<em>R</em>)-2,3,14,22,25-Pentahydroxycholest-7-en-6-one;Ecdysone;α-Ecdysone;MeSH ID: D004440",
    "duplicated_cas_no": "5605-38-9;11006-04-5",
    "SMILES": "O[C@]12C=3[C@@]([C@]4(C)[C@](C(=O)C3)(C[C@@H](O)[C@@H](O)C4)[H])(CC[C@]1(C)[C@@]([C@@H]([C@@H](CCC(C)(C)O)O)C)(CC2)[H])[H]",
    "meta_data": {
        "InChI": "InChI=1S/C27H44O6/c1-15(20(28)8-9-24(2,3)32)16-7-11-27(33)18-12-21(29)19-13-22(30)23(31)14-25(19,4)17(18)6-10-26(16,27)5/h12,15-17,19-20,22-23,28,30-33H,6-11,13-14H2,1-5H3/t15-,16+,17-,19-,20+,22+,23-,25+,26+,27+/m0/s1",
        "InChIKey": null,
        "Canonical SMILES": "O=C1C=C2C(CCC3(C)C(CCC23O)C(C)C(O)CCC(O)(C)C)C4(C)CC(O)C(O)CC14",
        "Molecular Formula": "C<sub>27</sub>H<sub>44</sub>O<sub>6</sub>",
        "Molecular Mass": "464.63",
        "Melting Point": "242 °C"
    }
}