{
    "cas_no": "607-88-5",
    "key_name": "<em>p</em>-Cresyl salicylate",
    "cn_name": "2-羟基苯甲酸-4-甲基苄基酯;",
    "alternate_name": "Benzoic acid, 2-hydroxy-, 4-methylphenyl ester;Salicylic acid, <em>p</em>-tolyl ester;<em>p</em>-Cresyl salicylate;<em>p</em>-Tolyl salicylate;4-Methylphenyl salicylate;NSC 60999;<em>p</em>-Tolyl 2-hydroxybenzoate",
    "duplicated_cas_no": "",
    "SMILES": "C(OC1=CC=C(C)C=C1)(=O)C2=C(O)C=CC=C2",
    "meta_data": {
        "InChI": "InChI=1S/C14H12O3/c1-10-6-8-11(9-7-10)17-14(16)12-4-2-3-5-13(12)15/h2-9,15H,1H3",
        "InChIKey": null,
        "Canonical SMILES": "O=C(OC1=CC=C(C=C1)C)C=2C=CC=CC2O",
        "Molecular Formula": "C<sub>14</sub>H<sub>12</sub>O<sub>3</sub>",
        "Molecular Mass": "228.24",
        "Boiling Point": "90-92 °C",
        "Melting Point": "39 °C"
    }
}