{
    "cas_no": "530-14-3",
    "key_name": "Picein",
    "cn_name": "云杉苷;云杉苷;",
    "alternate_name": "Ethanone, 1-[4-(β-<span class=\"text-smallcaps\">D</span>-glucopyranosyloxy)phenyl]-;Picein;1-[4-(β-<span class=\"text-smallcaps\">D</span>-Glucopyranosyloxy)phenyl]ethanone;Piceoside;Ameliaroside;<em>p</em>-Hydroxyacetophenone-<span class=\"text-smallcaps\">D</span>-glucoside;Salicinerein;Salinigrin;4-Acetylphenyl β-<span class=\"text-smallcaps\">D</span>-glucopyranoside;<em>p</em>-Hydroxyacetophenone glucoside",
    "duplicated_cas_no": "1194723-63-1",
    "SMILES": "O([C@H]1[C@H](O)[C@@H](O)[C@H](O)[C@@H](CO)O1)C2=CC=C(C(C)=O)C=C2",
    "meta_data": {
        "InChI": "InChI=1S/C14H18O7/c1-7(16)8-2-4-9(5-3-8)20-14-13(19)12(18)11(17)10(6-15)21-14/h2-5,10-15,17-19H,6H2,1H3/t10-,11-,12+,13-,14-/m1/s1",
        "InChIKey": null,
        "Canonical SMILES": "O=C(C1=CC=C(OC2OC(CO)C(O)C(O)C2O)C=C1)C",
        "Molecular Formula": "C<sub>14</sub>H<sub>18</sub>O<sub>7</sub>",
        "Molecular Mass": "298.29",
        "Melting Point": "195.5 °C"
    }
}