{
    "cas_no": "164391-52-0",
    "key_name": "5,7-Di-<em>tert</em>-butyl-3-(3,4-dimethylphenyl)-3<em>H</em>-benzofuran-2-one",
    "cn_name": null,
    "alternate_name": "2(3<em>H</em>)-Benzofuranone, 5,7-bis(1,1-dimethylethyl)-3-(3,4-dimethylphenyl)-;5,7-Bis(1,1-dimethylethyl)-3-(3,4-dimethylphenyl)-2(3<em>H</em>)-benzofuranone;5,7-Di-<em>tert</em>-butyl-3-(3,4-dimethylphenyl)-2(3<em>H</em>)-benzofuranone;5,7-Di-<em>tert</em>-butyl-3-(3,4-dimethylphenyl)-3<em>H</em>-benzofuran-2-one;3-(3,4-Dimethylphenyl)-5,7-di-<em>tert</em>-butyl-3<em>H</em>-benzofuran-2-one;Chinox AO 136",
    "duplicated_cas_no": "1000887-04-6",
    "SMILES": "O=C1C(C=2C(=C(C(C)(C)C)C=C(C(C)(C)C)C2)O1)C3=CC(C)=C(C)C=C3",
    "meta_data": {
        "InChI": "InChI=1S/C24H30O2/c1-14-9-10-16(11-15(14)2)20-18-12-17(23(3,4)5)13-19(24(6,7)8)21(18)26-22(20)25/h9-13,20H,1-8H3",
        "InChIKey": null,
        "Canonical SMILES": "O=C1OC=2C(=CC(=CC2C(C)(C)C)C(C)(C)C)C1C3=CC=C(C(=C3)C)C",
        "Molecular Formula": "C<sub>24</sub>H<sub>30</sub>O<sub>2</sub>",
        "Molecular Mass": "350.49",
        "Melting Point": "134-140 °C"
    }
}