{
    "cas_no": "574-93-6",
    "key_name": "Phthalocyanine",
    "cn_name": "酞菁染料;29H,31H-酞菁;酞花青;酚酞蓝;海利勤蓝G;酞菁;",
    "alternate_name": "29<em>H</em>,31<em>H</em>-Phthalocyanine;Phthalocyanine;C.I. 74100;Blue Pigment B;C.I. Pigment Blue 16;Heliogen Blue G;Heliogen Blue LG;Monastral Fast Blue G;PV-Fast Blue G;Tetrabenzoporphyrazine;Tetrabenzotetraazaporphine;Vulcafor Fast Blue G;Vulcanosine Fast Bremen Blue G;Vynamon Blue G;Tetrabenzo[<em>b</em>,<em>g</em>,<em>l</em>,<em>q</em>]porphyrazine;Irgalite Blue GLS;5,28:14,19-Diimino-7,12:26,21-dinitrilotetrabenzo[<em>c</em>,<em>h</em>,<em>m</em>,<em>r</em>][1,6,11,16]tetraazacycloeicosine;Irgazin Blue 3GT;Heliogen Blue 7560;Lionol Blue KW;Heliogen Blue 7800;Polymon Blue G;Monolite Fast Blue GS;Pigment Blue Green Phthalocyanine U;χ-Phthalocyanine;Heliogen Blue L 7560;Fastogen Blue 8110;Liophoton;Fastogen Blue 8120;Liophoton THP;Fastogen Blue 8120B;Fastogen Blue 8120BS;Heliogen Blue D 7560;Fastogen Blue GS;8120S;Heliogen Blue D 7565;Progen I;Liophoton TPA 891;TPA 891;NA 570;Heliogen Blue D 7490;Photo Fine TPA 891;MCP 80;Heliogen Blue L 7460;Pigment Blue 16;CG 1-1;PB 16;P 0355;Fastogen Blue 8130;Heliogen Blue 7565;L 7460",
    "duplicated_cas_no": "2612-54-6;4466-64-2;52440-51-4;81612-16-0;162831-66-5;889688-86-2",
    "SMILES": "C=12C(=C3NC1NC=4C=5C(C(N4)=NC=6C=7C(C(=NC8=NC(=N3)C=9C8=CC=CC9)N6)=CC=CC7)=CC=CC5)C=CC=C2",
    "meta_data": {
        "InChI": "InChI=1S/C32H18N8/c1-2-10-18-17(9-1)25-33-26(18)38-28-21-13-5-6-14-22(21)30(35-28)40-32-24-16-8-7-15-23(24)31(36-32)39-29-20-12-4-3-11-19(20)27(34-29)37-25/h1-16H,(H2,33,34,35,36,37,38,39,40)",
        "InChIKey": null,
        "Canonical SMILES": "N1=C2N=C(N=C3N=C(NC=4NC(N=C5N=C1C=6C=CC=CC56)=C7C=CC=CC74)C=8C=CC=CC38)C=9C=CC=CC29",
        "Molecular Formula": "C<sub>32</sub>H<sub>18</sub>N<sub>8</sub>",
        "Molecular Mass": "514.54",
        "Melting Point": "&gt;550 °C",
        "Density": "1.04 g/cm³"
    }
}