{
    "cas_no": "657-26-1",
    "key_name": "<span class=\"text-smallcaps\">L</span>-Lysine, dihydrochloride",
    "cn_name": "L-赖氨酸盐酸盐;L-赖氨酸二盐酸盐;",
    "alternate_name": "<span class=\"text-smallcaps\">L</span>-Lysine, hydrochloride (1:2);Lysine, dihydrochloride, <span class=\"text-smallcaps\">L</span>-;<span class=\"text-smallcaps\">L</span>-Lysine, dihydrochloride;Lysine dihydrochloride",
    "duplicated_cas_no": "",
    "SMILES": "[C@H](CCCCN)(C(O)=O)N.Cl",
    "meta_data": {
        "InChI": "InChI=1S/C6H14N2O2.2ClH/c7-4-2-1-3-5(8)6(9)10;;/h5H,1-4,7-8H2,(H,9,10);2*1H/t5-;;/m0../s1",
        "InChIKey": null,
        "Canonical SMILES": "Cl.O=C(O)C(N)CCCCN",
        "Molecular Formula": "C<sub>6</sub>H<sub>14</sub>N<sub>2</sub>O<sub>2</sub>.2ClH",
        "Molecular Mass": "",
        "Melting Point": "183-185 °C"
    }
}