{
    "cas_no": "3752-97-4",
    "key_name": "1,4-Bis(chloromethyl)-2,5-dimethoxybenzene",
    "cn_name": null,
    "alternate_name": "Benzene, 1,4-bis(chloromethyl)-2,5-dimethoxy-;<em>p</em>-Xylene, α,α′-dichloro-2,5-dimethoxy-;1,4-Bis(chloromethyl)-2,5-dimethoxybenzene;2,5-Bis(chloromethyl)-1,4-dimethoxybenzene;2,5-Dimethoxy-1,4-bis(chloromethyl)benzene;1,4-Dichloromethyl-2,5-dimethoxybenzene",
    "duplicated_cas_no": "",
    "SMILES": "C(Cl)C1=C(OC)C=C(CCl)C(OC)=C1",
    "meta_data": {
        "InChI": "InChI=1S/C10H12Cl2O2/c1-13-9-3-8(6-12)10(14-2)4-7(9)5-11/h3-4H,5-6H2,1-2H3",
        "InChIKey": null,
        "Canonical SMILES": "ClCC1=CC(OC)=C(C=C1OC)CCl",
        "Molecular Formula": "C<sub>10</sub>H<sub>12</sub>Cl<sub>2</sub>O<sub>2</sub>",
        "Molecular Mass": "235.11",
        "Melting Point": "165-166 °C"
    }
}