{
    "cas_no": "10310-21-1",
    "key_name": "2-Amino-6-chloropurine",
    "cn_name": "2-氨基-6-氯嘌呤;",
    "alternate_name": "9<em>H</em>-Purin-2-amine, 6-chloro-;Purine, 2-amino-6-chloro-;1<em>H</em>-Purin-2-amine, 6-chloro-;6-Chloro-9<em>H</em>-purin-2-amine;2-Amino-6-chloropurine;6-Chloro-2-aminopurine;6-Chloro-2-purinamine;6-Chloroguanine;6-Chloro-1<em>H</em>-purin-2-amine;NSC 29570;6-Chloro-7<em>H</em>-purin-2-ylamine;2-Amino-6-chloro-9<em>H</em>-purine;6-Chloro-9<em>H</em>-purin-2-yl-2-amine;6-Chloro-7<em>H</em>-purin-2-amine",
    "duplicated_cas_no": "28814-41-7;552331-40-5",
    "SMILES": "ClC1=C2C(=NC(N)=N1)N=CN2",
    "meta_data": {
        "InChI": "InChI=1S/C5H4ClN5/c6-3-2-4(9-1-8-2)11-5(7)10-3/h1H,(H3,7,8,9,10,11)",
        "InChIKey": null,
        "Canonical SMILES": "ClC1=NC(=NC=2N=CNC12)N",
        "Molecular Formula": "C<sub>5</sub>H<sub>4</sub>ClN<sub>5</sub>",
        "Molecular Mass": "169.57",
        "Melting Point": "275 °C (decomp)"
    }
}