{
    "cas_no": "77-95-2",
    "key_name": "(-)-Quinic acid",
    "cn_name": "右旋奎宁酸;",
    "alternate_name": "Cyclohexanecarboxylic acid, 1,3,4,5-tetrahydroxy-, (1α,3<em>R</em>,4α,5<em>R</em>)-;Cyclohexanecarboxylic acid, 1,3,4,5-tetrahydroxy-, (-)-;Cyclohexanecarboxylic acid, 1,3,4,5-tetrahydroxy-, [1<em>R</em>-(1α,3α,4α,5β)]-;(1α,3<em>R</em>,4α,5<em>R</em>)-1,3,4,5-Tetrahydroxycyclohexanecarboxylic acid;<span class=\"text-smallcaps\">D</span>-Quinic acid;(-)-Quinic acid;<span class=\"text-smallcaps\">D</span>-(-)-Quinic acid;Quinic acid;Quinic acid, (-)-;MeSH ID: D011801",
    "duplicated_cas_no": "35949-55-4",
    "SMILES": "C(O)(=O)[C@]1(O)C[C@@H](O)[C@@H](O)[C@H](O)C1",
    "meta_data": {
        "InChI": "InChI=1S/C7H12O6/c8-3-1-7(13,6(11)12)2-4(9)5(3)10/h3-5,8-10,13H,1-2H2,(H,11,12)/t3-,4-,5-,7+/m1/s1",
        "InChIKey": null,
        "Canonical SMILES": "O=C(O)C1(O)CC(O)C(O)C(O)C1",
        "Molecular Formula": "C<sub>7</sub>H<sub>12</sub>O<sub>6</sub>",
        "Molecular Mass": "192.17",
        "Melting Point": "162.5 °C"
    }
}