{
    "cas_no": "1010-48-6",
    "key_name": "3-Methyl-3-phenylbutanoic acid",
    "cn_name": null,
    "alternate_name": "Benzenepropanoic acid, β,β-dimethyl-;Hydrocinnamic acid, β,β-dimethyl-;β,β-Dimethylbenzenepropanoic acid;β-Phenylisovaleric acid;3-Phenylisopentanoic acid;3-Methyl-3-phenylbutyric acid;3-Methyl-3-phenylbutanoic acid;NSC 1046;NSC 200697;NSC 408029;3,3-Dimethyl-3-phenylpropionic acid",
    "duplicated_cas_no": "",
    "SMILES": "C(CC(O)=O)(C)(C)C1=CC=CC=C1",
    "meta_data": {
        "InChI": "InChI=1S/C11H14O2/c1-11(2,8-10(12)13)9-6-4-3-5-7-9/h3-7H,8H2,1-2H3,(H,12,13)",
        "InChIKey": null,
        "Canonical SMILES": "O=C(O)CC(C=1C=CC=CC1)(C)C",
        "Molecular Formula": "C<sub>11</sub>H<sub>14</sub>O<sub>2</sub>",
        "Molecular Mass": "178.23",
        "Boiling Point": "165-166 °C @ Press: 20 Torr",
        "Melting Point": "60 °C"
    }
}