{
    "cas_no": "823-96-1",
    "key_name": "Trimethylboroxin",
    "cn_name": "三甲基环三硼氧烷;",
    "alternate_name": "Boroxin, 2,4,6-trimethyl-;Boroxin, trimethyl-;2,4,6-Trimethylboroxin;Methaneboronic anhydride;Trimethylboroxin;2,4,6-Trimethylboroxine;2,4,6-Trimethyl-1,3,5,2,4,6-trioxatriborinane;Trimethyl-1,3,5,2,4,6-trioxatriborinane",
    "duplicated_cas_no": "152485-70-6",
    "SMILES": "CB1OB(C)OB(C)O1",
    "meta_data": {
        "InChI": "InChI=1S/C3H9B3O3/c1-4-7-5(2)9-6(3)8-4/h1-3H3",
        "InChIKey": null,
        "Canonical SMILES": "O1B(OB(OB1C)C)C",
        "Molecular Formula": "C<sub>3</sub>H<sub>9</sub>B<sub>3</sub>O<sub>3</sub>",
        "Molecular Mass": "125.53",
        "Boiling Point": "79.5-80.0 °C @ Press: 732 Torr",
        "Melting Point": "-38 °C"
    }
}