{
    "cas_no": "537-55-3",
    "key_name": "<em>N</em>-Acetyl-<span class=\"text-smallcaps\">L</span>-tyrosine",
    "cn_name": "N-乙酰-L-酪氨酸;乙酰酪氨酸;",
    "alternate_name": "<span class=\"text-smallcaps\">L</span>-Tyrosine, <em>N</em>-acetyl-;Tyrosine, <em>N</em>-acetyl-, <span class=\"text-smallcaps\">L</span>-;<em>N</em>-Acetyl-<span class=\"text-smallcaps\">L</span>-tyrosine;<em>N</em>-Acetyltyrosine;<span class=\"text-smallcaps\">L</span>-<em>N</em>-Acetyltyrosine;(2<em>S</em>)-2-Acetylamino-3-(4-hydroxyphenyl)propanoic acid;NSC 10853;(+)-(2<em>S</em>)-2-(Acetylamino)-3-(4-hydroxyphenyl)propanoic acid;Tyr-Excel;(2S)-2-Acetamido-3-(4-hydroxyphenyl)propanoic acid",
    "duplicated_cas_no": "29593-19-9",
    "SMILES": "C([C@H](NC(C)=O)C(O)=O)C1=CC=C(O)C=C1",
    "meta_data": {
        "InChI": "InChI=1S/C11H13NO4/c1-7(13)12-10(11(15)16)6-8-2-4-9(14)5-3-8/h2-5,10,14H,6H2,1H3,(H,12,13)(H,15,16)/t10-/m0/s1",
        "InChIKey": null,
        "Canonical SMILES": "O=C(O)C(NC(=O)C)CC1=CC=C(O)C=C1",
        "Molecular Formula": "C<sub>11</sub>H<sub>13</sub>NO<sub>4</sub>",
        "Molecular Mass": "223.23",
        "Melting Point": "151-153 °C"
    }
}