{
    "cas_no": "43076-61-5",
    "key_name": "4-Chloro-1-[4-(1,1-dimethylethyl)phenyl]-1-butanone",
    "cn_name": "4\"-叔丁基-4-氯丁酰苯;4-叔丁基-gamma-氯代苯丁酮;",
    "alternate_name": "1-Butanone, 4-chloro-1-[4-(1,1-dimethylethyl)phenyl]-;Butyrophenone, 4′-<em>tert</em>-butyl-4-chloro-;4-Chloro-1-[4-(1,1-dimethylethyl)phenyl]-1-butanone;4′-<em>tert</em>-Butyl-4-chlorobutyrophenone;<em>p</em>-<em>tert</em>-Butyl-ω-chlorobutyrophenone;4-Chloro-4′-<em>tert</em>-butylbutyrophenone;1-(4-<em>tert</em>-Butylphenyl)-4-chloro-1-butanone",
    "duplicated_cas_no": "",
    "SMILES": "C(CCCCl)(=O)C1=CC=C(C(C)(C)C)C=C1",
    "meta_data": {
        "InChI": "InChI=1S/C14H19ClO/c1-14(2,3)12-8-6-11(7-9-12)13(16)5-4-10-15/h6-9H,4-5,10H2,1-3H3",
        "InChIKey": null,
        "Canonical SMILES": "O=C(C1=CC=C(C=C1)C(C)(C)C)CCCCl",
        "Molecular Formula": "C<sub>14</sub>H<sub>19</sub>ClO",
        "Molecular Mass": "238.75",
        "Melting Point": "47 °C"
    }
}