{
    "cas_no": "13466-38-1",
    "key_name": "5-Bromo-2-hydroxypyridine",
    "cn_name": "2-羟基-5-溴吡啶;",
    "alternate_name": "2(1<em>H</em>)-Pyridinone, 5-bromo-;2(1<em>H</em>)-Pyridone, 5-bromo-;5-Bromo-2(1<em>H</em>)-pyridinone;5-Bromo-2(1<em>H</em>)-pyridone;5-Bromo-2-hydroxypyridine;5-Bromo-2-pyridinol;2-Hydroxy-5-bromopyridine;5-Bromo-2-pyridone;5-Bromo-1<em>H</em>-pyridin-2-one;3-Bromo-6-hydroxypyridine;5-Bromo-1,2-dihydropyridin-2-one",
    "duplicated_cas_no": "49843-23-4",
    "SMILES": "BrC=1C=CC(=O)NC1",
    "meta_data": {
        "InChI": "InChI=1S/C5H4BrNO/c6-4-1-2-5(8)7-3-4/h1-3H,(H,7,8)",
        "InChIKey": null,
        "Canonical SMILES": "O=C1C=CC(Br)=CN1",
        "Molecular Formula": "C<sub>5</sub>H<sub>4</sub>BrNO",
        "Molecular Mass": "174.00",
        "Melting Point": "177-178 °C"
    }
}