{
    "cas_no": "6533-73-9",
    "key_name": "Carbonic acid, thallium(1+) salt (1:2)",
    "cn_name": "碳酸铊(I);",
    "alternate_name": "Carbonic acid, thallium(1+) salt (1:2);Carbonic acid, dithallium(1+) salt;Thallium carbonate;Thallous carbonate;Dithallium carbonate;Thallium carbonate (Tl<sub>2</sub>CO<sub>3</sub>);Thallium(1+) carbonate",
    "duplicated_cas_no": "",
    "SMILES": "C(=O)(O)O.[Tl]",
    "meta_data": {
        "InChI": "InChI=1S/CH2O3.2Tl/c2-1(3)4;;/h(H2,2,3,4);;",
        "InChIKey": null,
        "Canonical SMILES": "[Tl].O=C(O)O",
        "Molecular Formula": "CH<sub>2</sub>O<sub>3</sub>.2Tl",
        "Molecular Mass": "",
        "Melting Point": "272 °C",
        "Density": "7.1 g/cm³"
    }
}