{
    "cas_no": "175481-38-6",
    "key_name": "(<em>R</em>)-<em>N</em>-Benzyl-2-acetamido-3-hydroxypropionamide",
    "cn_name": null,
    "alternate_name": "Propanamide, 2-(acetylamino)-3-hydroxy-<em>N</em>-(phenylmethyl)-, (2<em>R</em>)-;Propanamide, 2-(acetylamino)-3-hydroxy-<em>N</em>-(phenylmethyl)-, (<em>R</em>)-;(2<em>R</em>)-2-(Acetylamino)-3-hydroxy-<em>N</em>-(phenylmethyl)propanamide;(<em>R</em>)-<em>N</em>-Benzyl-2-acetamido-3-hydroxypropionamide;(2R)-<em>N</em>-Benzyl-2-acetamido-3-hydroxypropanamide;(2R)-2-Acetamido-<em>N</em>-benzyl-3-hydroxypropanamide;(<em>R</em>)-2-Acetylamino-<em>N</em>-benzyl-3-hydroxy-propionamide",
    "duplicated_cas_no": "",
    "SMILES": "C(NC([C@H](NC(C)=O)CO)=O)C1=CC=CC=C1",
    "meta_data": {
        "InChI": "InChI=1S/C12H16N2O3/c1-9(16)14-11(8-15)12(17)13-7-10-5-3-2-4-6-10/h2-6,11,15H,7-8H2,1H3,(H,13,17)(H,14,16)/t11-/m1/s1",
        "InChIKey": null,
        "Canonical SMILES": "O=C(NC(C(=O)NCC=1C=CC=CC1)CO)C",
        "Molecular Formula": "C<sub>12</sub>H<sub>16</sub>N<sub>2</sub>O<sub>3</sub>",
        "Molecular Mass": "236.27",
        "Melting Point": "146-148 °C"
    }
}