{
    "cas_no": "1212-53-9",
    "key_name": "Glycine, <em>N</em>-[(phenylmethoxy)carbonyl]-, methyl ester",
    "cn_name": null,
    "alternate_name": "Glycine, <em>N</em>-[(phenylmethoxy)carbonyl]-, methyl ester;Glycine, <em>N</em>-carboxy-, <em>N</em>-benzyl methyl ester;<em>N</em>-Benzyloxycarbonylglycine methyl ester;Methyl <em>N</em>-benzyloxycarbonylglycinate;(Benzyloxycarbonyl)glycine methyl ester;<em>N</em>-(Phenylmethoxycarbonyl)glycine methyl ester;NSC 88470;Methyl 2-[[(benzyloxy)carbonyl]amino]acetate;<em>N</em>-(Carbobenzyloxy)glycine methyl ester;Carbobenzyloxyglycine methyl ester",
    "duplicated_cas_no": "",
    "SMILES": "C(OC(NCC(OC)=O)=O)C1=CC=CC=C1",
    "meta_data": {
        "InChI": "InChI=1S/C11H13NO4/c1-15-10(13)7-12-11(14)16-8-9-5-3-2-4-6-9/h2-6H,7-8H2,1H3,(H,12,14)",
        "InChIKey": null,
        "Canonical SMILES": "O=C(OCC=1C=CC=CC1)NCC(=O)OC",
        "Molecular Formula": "C<sub>11</sub>H<sub>13</sub>NO<sub>4</sub>",
        "Molecular Mass": "223.23",
        "Melting Point": "111-112 °C"
    }
}