{
    "cas_no": "25875-51-8",
    "key_name": "Robenidine",
    "cn_name": "盐酸氯苯胍;1,3-双(对氯苯叉氨基)胍盐酸盐;",
    "alternate_name": "Carbonimidic dihydrazide, 2,2′-bis[(4-chlorophenyl)methylene]-;Guanidine, 1,3-bis[(<em>p</em>-chlorobenzylidene)amino]-;Carbonimidic dihydrazide, bis[(4-chlorophenyl)methylene]-;Benzaldehyde, <em>p</em>-chloro-, dihydrazone with 1,3-diaminoguanidine;2,2′-Bis[(4-chlorophenyl)methylene]carbonimidic dihydrazide;1,3-Bis(<em>p</em>-chlorobenzylideneamino)guanidine;1,3-Bis(4-chlorobenzylideneamino)guanidine;Robenidine;Khimcoccid;Chimcoccid",
    "duplicated_cas_no": "54692-28-3",
    "SMILES": "C(=NNC(NN=CC1=CC=C(Cl)C=C1)=N)C2=CC=C(Cl)C=C2",
    "meta_data": {
        "InChI": "InChI=1S/C15H13Cl2N5/c16-13-5-1-11(2-6-13)9-19-21-15(18)22-20-10-12-3-7-14(17)8-4-12/h1-10H,(H3,18,21,22)",
        "InChIKey": null,
        "Canonical SMILES": "ClC1=CC=C(C=NNC(=N)NN=CC2=CC=C(Cl)C=C2)C=C1",
        "Molecular Formula": "C<sub>15</sub>H<sub>13</sub>Cl<sub>2</sub>N<sub>5</sub>",
        "Molecular Mass": "334.20",
        "Melting Point": "187-188 °C"
    }
}