{
    "cas_no": "592-84-7",
    "key_name": "Butyl formate",
    "cn_name": "甲酸丁酯;",
    "alternate_name": "Formic acid, butyl ester;Butyl formate;<em>n</em>-Butyl formate;Butyl methanoate;NSC 6969",
    "duplicated_cas_no": "",
    "SMILES": "C(CCC)OC=O",
    "meta_data": {
        "InChI": "InChI=1S/C5H10O2/c1-2-3-4-7-5-6/h5H,2-4H2,1H3",
        "InChIKey": null,
        "Canonical SMILES": "O=COCCCC",
        "Molecular Formula": "C<sub>5</sub>H<sub>10</sub>O<sub>2</sub>",
        "Molecular Mass": "102.13",
        "Boiling Point": "107 °C",
        "Melting Point": "-90 °C",
        "Density": "0.9 g/cm³"
    }
}