{
    "cas_no": "1721-93-3",
    "key_name": "1-Methylisoquinoline",
    "cn_name": "1-甲基异喹啉基;",
    "alternate_name": "Isoquinoline, 1-methyl-;1-Methylisoquinoline;Isoquinaldine;NSC 101175",
    "duplicated_cas_no": "",
    "SMILES": "CC=1C2=C(C=CN1)C=CC=C2",
    "meta_data": {
        "InChI": "InChI=1S/C10H9N/c1-8-10-5-3-2-4-9(10)6-7-11-8/h2-7H,1H3",
        "InChIKey": null,
        "Canonical SMILES": "N=1C=CC=2C=CC=CC2C1C",
        "Molecular Formula": "C<sub>10</sub>H<sub>9</sub>N",
        "Molecular Mass": "143.19",
        "Boiling Point": "248 °C",
        "Melting Point": "10 °C"
    }
}