{
    "cas_no": "19064-64-3",
    "key_name": "3,6-Dichloro-4-methylpyridazine",
    "cn_name": "3,6-二氯-4-甲基哒嗪;甲基-3,6-二氯哒嗪;4-甲基-3,6-二氯哒嗪;",
    "alternate_name": "Pyridazine, 3,6-dichloro-4-methyl-;3,6-Dichloro-4-methylpyridazine;NSC 66367;4-Methyl-3,6-dichloropyridazine",
    "duplicated_cas_no": "",
    "SMILES": "CC1=C(Cl)N=NC(Cl)=C1",
    "meta_data": {
        "InChI": "InChI=1S/C5H4Cl2N2/c1-3-2-4(6)8-9-5(3)7/h2H,1H3",
        "InChIKey": null,
        "Canonical SMILES": "ClC1=NN=C(Cl)C(=C1)C",
        "Molecular Formula": "C<sub>5</sub>H<sub>4</sub>Cl<sub>2</sub>N<sub>2</sub>",
        "Molecular Mass": "163.00",
        "Boiling Point": "149-151 °C @ Press: 21 Torr",
        "Melting Point": "86.5-97 °C"
    }
}