{
    "cas_no": "4499-40-5",
    "key_name": "Oxtriphylline",
    "cn_name": "胆茶碱;1,3-二甲基黄嘌呤胆碱盐;",
    "alternate_name": "Ethanaminium, 2-hydroxy-<em>N</em>,<em>N</em>,<em>N</em>-trimethyl-, salt with 3,9-dihydro-1,3-dimethyl-1<em>H</em>-purine-2,6-dione (1:1);Choline, compd. with theophylline (1:1);Ethanaminium, 2-hydroxy-<em>N</em>,<em>N</em>,<em>N</em>-trimethyl-, salt with 3,7-dihydro-1,3-dimethyl-1<em>H</em>-purine-2,6-dione (1:1);Choline, compd. with theophylline;1<em>H</em>-Purine-2,6-dione, 3,7-dihydro-1,3-dimethyl-, ion(1-), 2-hydroxy-<em>N</em>,<em>N</em>,<em>N</em>-trimethylethanaminium;Theophylline, ion(1-) choline (1:1);Theophylline, compd. with choline;Choline theophyllinate;Choledyl;Cholegyl;Cholinophylline;Filoral;Oxtrimethylline;Oxtriphylline;Soliphylline;Teokolin;Theophylline cholinate;Theoxylline;Teovent;Zy 15061;Sabidal;Choledyl SA;Teofilcolina;Oxytrimethylline",
    "duplicated_cas_no": "146-71-4;13930-27-3",
    "SMILES": "O=C1C2=C(N(C)C(=O)N1C)N=C[N-]2.C([N+](C)(C)C)CO",
    "meta_data": {
        "InChI": "InChI=1S/C7H8N4O2.C5H14NO/c1-10-5-4(8-3-9-5)6(12)11(2)7(10)13;1-6(2,3)4-5-7/h3H,1-2H3,(H,8,9,12);7H,4-5H2,1-3H3/q;+1/p-1",
        "InChIKey": null,
        "Canonical SMILES": "O=C1C=2[N-]C=NC2N(C(=O)N1C)C.OCC[N+](C)(C)C",
        "Molecular Formula": "C<sub>7</sub>H<sub>7</sub>N<sub>4</sub>O<sub>2</sub>.C<sub>5</sub>H<sub>14</sub>NO",
        "Molecular Mass": "",
        "Melting Point": "176-178 °C"
    }
}