{
    "cas_no": "542-91-6",
    "key_name": "Diethylsilane",
    "cn_name": null,
    "alternate_name": "Silane, diethyl-;Diethylsilane;3-Silapentane",
    "duplicated_cas_no": "",
    "SMILES": "[SiH2](CC)CC",
    "meta_data": {
        "InChI": "InChI=1S/C4H12Si/c1-3-5-4-2/h3-5H2,1-2H3",
        "InChIKey": null,
        "Canonical SMILES": "CC[SiH2]CC",
        "Molecular Formula": "C<sub>4</sub>H<sub>12</sub>Si",
        "Molecular Mass": "88.22",
        "Boiling Point": "57 °C",
        "Melting Point": "-134.3 °C",
        "Density": "0.683 g/cm³"
    }
}