{
    "cas_no": "98-72-6",
    "key_name": "Nitarsone",
    "cn_name": "对硝基苯胂酸;",
    "alternate_name": "Arsonic acid, <em>As</em>-(4-nitrophenyl)-;Benzenearsonic acid, <em>p</em>-nitro-;Arsonic acid, (4-nitrophenyl)-;<em>As</em>-(4-Nitrophenyl)arsonic acid;Nitarsone;<em>p</em>-Nitrobenzenearsonic acid;(4-Nitrophenyl)arsonic acid;4-Nitrobenzenearsonic acid;(<em>p</em>-Nitrophenyl)arsonic acid;Histostat 50;Hep-a-Stat;Histostat;Nitarson;NSC 5085;<em>p</em>-Nitrophenyl arsenic acid",
    "duplicated_cas_no": "8027-77-8",
    "SMILES": "[As](=O)(O)(O)C1=CC=C(N(=O)=O)C=C1",
    "meta_data": {
        "InChI": "InChI=1S/C6H6AsNO5/c9-7(10,11)5-1-3-6(4-2-5)8(12)13/h1-4H,(H2,9,10,11)",
        "InChIKey": null,
        "Canonical SMILES": "O=N(=O)C1=CC=C(C=C1)[As](=O)(O)O",
        "Molecular Formula": "C<sub>6</sub>H<sub>6</sub>AsNO<sub>5</sub>",
        "Molecular Mass": "247.04",
        "Melting Point": "&gt;310 °C (decomp)"
    }
}