{
    "cas_no": "83-31-8",
    "key_name": "1,8-Naphthosultone",
    "cn_name": "1,8-萘磺酸内酯;",
    "alternate_name": "Naphth[1,8-<em>cd</em>]-1,2-oxathiole, 2,2-dioxide;1-Naphthalenesulfonic acid, 8-hydroxy-, γ-sultone;Naphthosultone;1,8-Naphthosultone;1-Naphthol-8-sulfonic acid sultone;NSC 26341",
    "duplicated_cas_no": "",
    "SMILES": "O=S1(=O)C=2C3=C(O1)C=CC=C3C=CC2",
    "meta_data": {
        "InChI": "InChI=1S/C10H6O3S/c11-14(12)9-6-2-4-7-3-1-5-8(13-14)10(7)9/h1-6H",
        "InChIKey": null,
        "Canonical SMILES": "O=S1(=O)OC2=CC=CC=3C=CC=C1C23",
        "Molecular Formula": "C<sub>10</sub>H<sub>6</sub>O<sub>3</sub>S",
        "Molecular Mass": "206.22",
        "Boiling Point": "~190 °C (approx) @ Press: 2-3 Torr",
        "Melting Point": "156 °C"
    }
}