{
    "cas_no": "2094-99-7",
    "key_name": "1-(1-Isocyanato-1-methylethyl)-3-(1-methylethenyl)benzene",
    "cn_name": "3-异丙基-二甲基苄基异氰酸酯;TMI;1-(1-异氰酸根合-1-甲基乙基)-3-(1-甲基乙烯基)苯;",
    "alternate_name": "Benzene, 1-(1-isocyanato-1-methylethyl)-3-(1-methylethenyl)-;Isocyanic acid, <em>m</em>-isopropenyl-α,α-dimethylbenzyl ester;1-(1-Isocyanato-1-methylethyl)-3-(1-methylethenyl)benzene;3-Isopropenyl-α,α-dimethylbenzyl isocyanate;<em>m</em>-TMI;TMI;<em>m</em>-Isopropenyl-α,α-dimethylbenzyl isocyanate;Takenate TMI;meta-TMI;Dimethyl-<em>m</em>-isopropenylbenzyl isocyanate;<em>m</em>-Isopropenylcumyl isocyanate;α,α-Dimethyl-<em>m</em>-isopropenylbenzyl isocyanate;Cytec TMI;<em>m</em>-Isopropenyldimethylbenzyl isocyanate;3-Isopropenyl-α,α′-dimethylbenzyl isocyanate;1-(1-Isocyanato-1-methylethyl)-3-isopropenylbenzene;1-(2-Isocyanatopropan-2-yl)-3-(prop-1-en-2-yl)benzene;1-(2-Isocyanatopropan-2-yl)-3-prop-1-en-2-ylbenzene;α,α-Dimethyl-3-isopropenylbenzyl isocyanate",
    "duplicated_cas_no": "138273-17-3;153929-64-7;163620-50-6",
    "SMILES": "C(N=C=O)(C)(C)C1=CC(C(C)=C)=CC=C1",
    "meta_data": {
        "InChI": "InChI=1S/C13H15NO/c1-10(2)11-6-5-7-12(8-11)13(3,4)14-9-15/h5-8H,1H2,2-4H3",
        "InChIKey": null,
        "Canonical SMILES": "O=C=NC(C=1C=CC=C(C1)C(=C)C)(C)C",
        "Molecular Formula": "C<sub>13</sub>H<sub>15</sub>NO",
        "Molecular Mass": "201.26",
        "Boiling Point": "269.5 °C"
    }
}