{
    "cas_no": "1560-11-8",
    "key_name": "1-Cyclopentene-1-carboxylic acid",
    "cn_name": "1-环戊烯羧酸;",
    "alternate_name": "1-Cyclopentene-1-carboxylic acid;Isoaleprolic acid;1-Cyclopentenecarboxylic acid;1-Cyclopentenylcarboxylic acid;NSC 44968",
    "duplicated_cas_no": "",
    "SMILES": "C(O)(=O)C=1CCCC1",
    "meta_data": {
        "InChI": "InChI=1S/C6H8O2/c7-6(8)5-3-1-2-4-5/h3H,1-2,4H2,(H,7,8)",
        "InChIKey": null,
        "Canonical SMILES": "O=C(O)C1=CCCC1",
        "Molecular Formula": "C<sub>6</sub>H<sub>8</sub>O<sub>2</sub>",
        "Molecular Mass": "112.13",
        "Boiling Point": "210-215 °C @ Press: 15 Torr",
        "Melting Point": "119 °C"
    }
}