{
    "cas_no": "103-88-8",
    "key_name": "Bromoacetanilide",
    "cn_name": "4\"-溴乙酰苯胺;对溴乙酰苯胺;",
    "alternate_name": "Acetamide, <em>N</em>-(4-bromophenyl)-;Acetanilide, 4′-bromo-;Acetanilide, <em>p</em>-bromo-;<em>N</em>-(4-Bromophenyl)acetamide;Antisepsin;Asepsin;<em>p</em>-Bromoacetanilide;<em>p</em>-Bromo-<em>N</em>-acetanilide;Bromoantifebrin;1-Bromo-4-acetamidobenzene;4′-Bromoacetanilide;<em>N</em>-Acetyl-<em>p</em>-bromoaniline;<em>N</em>-(<em>p</em>-Bromophenyl)acetamide;1-(<em>N</em>-Acetylamino)-4-bromobenzene;<em>N</em>-Acetyl-4-bromoaniline;Monobromoacetanilide;Bromoacetanilide;NSC 105442;NSC 8048;4-Acetamido-1-bromobenzene;4-(Acetylamino)-1-bromobenzene",
    "duplicated_cas_no": "",
    "SMILES": "N(C(C)=O)C1=CC=C(Br)C=C1",
    "meta_data": {
        "InChI": "InChI=1S/C8H8BrNO/c1-6(11)10-8-4-2-7(9)3-5-8/h2-5H,1H3,(H,10,11)",
        "InChIKey": null,
        "Canonical SMILES": "O=C(NC1=CC=C(Br)C=C1)C",
        "Molecular Formula": "C<sub>8</sub>H<sub>8</sub>BrNO",
        "Molecular Mass": "214.06",
        "Melting Point": "168 °C"
    }
}