{
    "cas_no": "3140-93-0",
    "key_name": "2,3-Dibromothiophene",
    "cn_name": "2,3-二溴噻吩;",
    "alternate_name": "Thiophene, 2,3-dibromo-;2,3-Dibromothiophene;NSC 99003",
    "duplicated_cas_no": "",
    "SMILES": "BrC1=C(Br)SC=C1",
    "meta_data": {
        "InChI": "InChI=1S/C4H2Br2S/c5-3-1-2-7-4(3)6/h1-2H",
        "InChIKey": null,
        "Canonical SMILES": "BrC=1SC=CC1Br",
        "Molecular Formula": "C<sub>4</sub>H<sub>2</sub>Br<sub>2</sub>S",
        "Molecular Mass": "241.93",
        "Boiling Point": "218.5 °C",
        "Melting Point": "-17.5 °C"
    }
}