{
    "cas_no": "2739-98-2",
    "key_name": "Ethyl 2-pyridylacetate",
    "cn_name": "2-吡啶乙酸乙酯;",
    "alternate_name": "2-Pyridineacetic acid, ethyl ester;Ethyl 2-(α-pyridyl)acetate;Ethyl 2-pyridineacetate;Ethyl 2-pyridylacetate;Ethyl 2-(2-pyridyl)acetate;Ethyl 2-pyridinylacetate;2-(2-Pyridyl)acetic acid ethyl ester;NSC 82347;Ethyl 2-(pyridin-2-yl)acetate;(2-Pyridinyl)acetic acid ethyl ester;2-Pyridylacetic acid ethyl ester",
    "duplicated_cas_no": "",
    "SMILES": "C(C(OCC)=O)C1=CC=CC=N1",
    "meta_data": {
        "InChI": "InChI=1S/C9H11NO2/c1-2-12-9(11)7-8-5-3-4-6-10-8/h3-6H,2,7H2,1H3",
        "InChIKey": null,
        "Canonical SMILES": "O=C(OCC)CC1=NC=CC=C1",
        "Molecular Formula": "C<sub>9</sub>H<sub>11</sub>NO<sub>2</sub>",
        "Molecular Mass": "165.19",
        "Boiling Point": "134-135 °C @ Press: 21 Torr",
        "Melting Point": "136-137 °C"
    }
}