{
    "cas_no": "846-48-0",
    "key_name": "Boldenone",
    "cn_name": "宝丹酮;",
    "alternate_name": "Androsta-1,4-dien-3-one, 17-hydroxy-, (17β)-;Androsta-1,4-dien-3-one, 17β-hydroxy-;(17β)-17-Hydroxyandrosta-1,4-dien-3-one;17β-Hydroxyandrosta-1,4-dien-3-one;1,4-Androstadien-17β-ol-3-one;Androsta-1,4-diene-17β-ol-3-one;1,2-Dehydrotestosterone;1-Dehydrotestosterone;1,2-Didehydrotestosterone;17β-Hydroxyandrost-1,4-diene-3-one;Boldenone;Dehydrotestosterone;Δ<sup>1</sup>-Testosterone;17β-Hydroxy-1,4-androstadiene-3-one;17β-Hydroxyandrost-1,4-dien-3-one;RU 18761;β-Boldenone;NSC 79102;Boldane;17β-Boldenone",
    "duplicated_cas_no": "2602564-64-5",
    "SMILES": "C[C@@]12[C@@]3([C@]([C@]4([C@](C)(CC3)[C@@H](O)CC4)[H])(CCC1=CC(=O)C=C2)[H])[H]",
    "meta_data": {
        "InChI": "InChI=1S/C19H26O2/c1-18-9-7-13(20)11-12(18)3-4-14-15-5-6-17(21)19(15,2)10-8-16(14)18/h7,9,11,14-17,21H,3-6,8,10H2,1-2H3/t14-,15-,16-,17-,18-,19-/m0/s1",
        "InChIKey": null,
        "Canonical SMILES": "O=C1C=CC2(C(=C1)CCC3C2CCC4(C)C(O)CCC34)C",
        "Molecular Formula": "C<sub>19</sub>H<sub>26</sub>O<sub>2</sub>",
        "Molecular Mass": "286.41",
        "Melting Point": "165 °C"
    }
}