{
    "cas_no": "35308-00-0",
    "key_name": "4-Methoxyacridone",
    "cn_name": null,
    "alternate_name": "9(10<em>H</em>)-Acridinone, 4-methoxy-;9-Acridanone, 4-methoxy-;4-Methoxy-9(10<em>H</em>)-acridinone;4-Methoxyacridone;4-Methoxy-9(10<em>H</em>)-acridone",
    "duplicated_cas_no": "",
    "SMILES": "O(C)C1=C2C(C(=O)C=3C(N2)=CC=CC3)=CC=C1",
    "meta_data": {
        "InChI": "InChI=1S/C14H11NO2/c1-17-12-8-4-6-10-13(12)15-11-7-3-2-5-9(11)14(10)16/h2-8H,1H3,(H,15,16)",
        "InChIKey": null,
        "Canonical SMILES": "O=C1C=2C=CC=CC2NC=3C(OC)=CC=CC13",
        "Molecular Formula": "C<sub>14</sub>H<sub>11</sub>NO<sub>2</sub>",
        "Molecular Mass": "225.24",
        "Melting Point": "346-348 °C"
    }
}