{
    "cas_no": "14371-82-5",
    "key_name": "2-Nitro-4-(trifluoromethyl)benzenethiol",
    "cn_name": "2-硝基-4-三氟甲基苯硫酚;",
    "alternate_name": "Benzenethiol, 2-nitro-4-(trifluoromethyl)-;<em>p</em>-Toluenethiol, α,α,α-trifluoro-2-nitro-;2-Nitro-4-(trifluoromethyl)benzenethiol;2-Nitro-4-trifluoromethylthiophenol;2-Nitro-4-(trifluoromethyl)benzene-1-thiol",
    "duplicated_cas_no": "",
    "SMILES": "N(=O)(=O)C1=CC(C(F)(F)F)=CC=C1S",
    "meta_data": {
        "InChI": "InChI=1S/C7H4F3NO2S/c8-7(9,10)4-1-2-6(14)5(3-4)11(12)13/h1-3,14H",
        "InChIKey": null,
        "Canonical SMILES": "O=N(=O)C1=CC(=CC=C1S)C(F)(F)F",
        "Molecular Formula": "C<sub>7</sub>H<sub>4</sub>F<sub>3</sub>NO<sub>2</sub>S",
        "Molecular Mass": "223.17",
        "Boiling Point": "105 °C @ Press: 1 Torr",
        "Melting Point": "35-36 °C"
    }
}