{
    "cas_no": "62129-44-6",
    "key_name": "<em>N</em>-<em>tert</em>-Butoxycarbonyl-4-iodo-<span class=\"text-smallcaps\">L</span>-phenylalanine",
    "cn_name": "Boc-4-碘-L-苯丙氨酸;N-叔丁氧羰基-4-碘-L-苯丙氨酸;",
    "alternate_name": "<span class=\"text-smallcaps\">L</span>-Phenylalanine, <em>N</em>-[(1,1-dimethylethoxy)carbonyl]-4-iodo-;<em>N</em>-[(1,1-Dimethylethoxy)carbonyl]-4-iodo-<span class=\"text-smallcaps\">L</span>-phenylalanine;<em>N</em>-BOC-4-Iodo-<span class=\"text-smallcaps\">L</span>-phenylalanine;<em>N</em>-<em>tert</em>-Butoxycarbonyl-4-iodo-<span class=\"text-smallcaps\">L</span>-phenylalanine;<em>N</em>-(<em>tert</em>-Butoxycarbonyl)-<em>p</em>-iodo-<span class=\"text-smallcaps\">L</span>-phenylalanine;(<em>S</em>)-2-(<em>tert</em>-Butoxycarbonylamino)-3-(4-iodophenyl)propanoic acid",
    "duplicated_cas_no": "1398097-39-6",
    "SMILES": "C([C@H](NC(OC(C)(C)C)=O)C(O)=O)C1=CC=C(I)C=C1",
    "meta_data": {
        "InChI": "InChI=1S/C14H18INO4/c1-14(2,3)20-13(19)16-11(12(17)18)8-9-4-6-10(15)7-5-9/h4-7,11H,8H2,1-3H3,(H,16,19)(H,17,18)/t11-/m0/s1",
        "InChIKey": null,
        "Canonical SMILES": "O=C(OC(C)(C)C)NC(C(=O)O)CC1=CC=C(I)C=C1",
        "Molecular Formula": "C<sub>14</sub>H<sub>18</sub>INO<sub>4</sub>",
        "Molecular Mass": "391.20",
        "Melting Point": "117-120 °C"
    }
}