{
    "cas_no": "153197-14-9",
    "key_name": "Oxaziclomefone",
    "cn_name": null,
    "alternate_name": "4<em>H</em>-1,3-Oxazin-4-one, 3-[1-(3,5-dichlorophenyl)-1-methylethyl]-2,3-dihydro-6-methyl-5-phenyl-;3-[1-(3,5-Dichlorophenyl)-1-methylethyl]-2,3-dihydro-6-methyl-5-phenyl-4<em>H</em>-1,3-oxazin-4-one;MY 100;Oxaziclomefone;MY 100 (pesticide);MGY 100;Homerun;Pat-Ful;Pat-Ful Ace;Tredy;Samurai;Fullhouse;Sat-Ful;Tredy Plus",
    "duplicated_cas_no": "217311-95-0",
    "SMILES": "O=C1C(=C(C)OCN1C(C)(C)C2=CC(Cl)=CC(Cl)=C2)C3=CC=CC=C3",
    "meta_data": {
        "InChI": "InChI=1S/C20H19Cl2NO2/c1-13-18(14-7-5-4-6-8-14)19(24)23(12-25-13)20(2,3)15-9-16(21)11-17(22)10-15/h4-11H,12H2,1-3H3",
        "InChIKey": null,
        "Canonical SMILES": "O=C1C(C=2C=CC=CC2)=C(OCN1C(C=3C=C(Cl)C=C(Cl)C3)(C)C)C",
        "Molecular Formula": "C<sub>20</sub>H<sub>19</sub>Cl<sub>2</sub>NO<sub>2</sub>",
        "Molecular Mass": "376.28",
        "Melting Point": "150 °C"
    }
}