{
    "cas_no": "134-58-7",
    "key_name": "Azaguanine",
    "cn_name": "8-氮杂鸟嘌呤;5-氨基-3,6-二氢-7H-1,2,3-三唑并[4,5-d]嘧啶-7-酮;",
    "alternate_name": "7<em>H</em>-1,2,3-Triazolo[4,5-<em>d</em>]pyrimidin-7-one, 5-amino-3,6-dihydro-;7<em>H</em>-<em>v</em>-Triazolo[4,5-<em>d</em>]pyrimidin-7-one, 5-amino-1,6-dihydro-;7<em>H</em>-1,2,3-Triazolo[4,5-<em>d</em>]pyrimidin-7-one, 5-amino-1,4-dihydro-;<em>v</em>-Triazolo[4,5-<em>d</em>]pyrimidin-7-ol, 5-amino-;5-Amino-3,6-dihydro-7<em>H</em>-1,2,3-triazolo[4,5-<em>d</em>]pyrimidin-7-one;8-AG;8-Azaguanine;Azan;5-Amino-7-hydroxy-1<em>H</em>-<em>v</em>-triazolo[<em>d</em>]pyrimidine;5-Amino-1<em>H</em>-<em>v</em>-triazolo[<em>d</em>]pyrimidin-7-ol;Guanazolo;Azaguanine;Pathocidine;5-Amino-1<em>H</em>-<em>vic</em>-triazolo[<em>d</em>]pyrimidin-7-ol;Guanazol;NSC 749;Pathocidin;NSC 151069;NSC 223526;MeSH ID: D001375",
    "duplicated_cas_no": "529-99-7;15985-96-3",
    "SMILES": "O=C1C2=C(NC(N)=N1)N=NN2",
    "meta_data": {
        "InChI": "InChI=1S/C4H4N6O/c5-4-6-2-1(3(11)7-4)8-10-9-2/h(H4,5,6,7,8,9,10,11)",
        "InChIKey": null,
        "Canonical SMILES": "O=C1N=C(N)NC=2N=NNC12",
        "Molecular Formula": "C<sub>4</sub>H<sub>4</sub>N<sub>6</sub>O",
        "Molecular Mass": "152.11",
        "Melting Point": "300 °C"
    }
}