{
    "cas_no": "3681-71-8",
    "key_name": "<em>cis</em>-3-Hexenyl acetate",
    "cn_name": "乙酸叶醇酯;乙酸顺式-3-己烯酯;",
    "alternate_name": "3-Hexen-1-ol, 1-acetate, (3<em>Z</em>)-;3-Hexen-1-ol, acetate, (<em>Z</em>)-;3-Hexen-1-ol, acetate, (3<em>Z</em>)-;<em>cis</em>-3-Hexenyl acetate;(<em>Z</em>)-3-Hexenyl acetate;<em>cis</em>-3-Hexenyl ethanoate;(<em>Z</em>)-3-Hexen-1-ol acetate;(<em>Z</em>)-Hex-3-en-1-yl acetate;<em>cis</em>-3-Hexenol acetate;<em>cis</em>-Hex-3-en-1-yl acetate;(Z)-3-Hexen-1-yl acetate;(3<em>Z</em>)-Hexen-1-yl acetate;3<em>Z</em>-Hexenyl acetate;<em>cis</em>-3-Hexen-1-ol acetate;3<em>Z</em>-Hexen-1-ol acetate;Leaf acetate",
    "duplicated_cas_no": "25152-87-8",
    "SMILES": "C(C/C=C\\CC)OC(C)=O",
    "meta_data": {
        "InChI": "InChI=1S/C8H14O2/c1-3-4-5-6-7-10-8(2)9/h4-5H,3,6-7H2,1-2H3/b5-4-",
        "InChIKey": null,
        "Canonical SMILES": "O=C(OCCC=CCC)C",
        "Molecular Formula": "C<sub>8</sub>H<sub>14</sub>O<sub>2</sub>",
        "Molecular Mass": "142.20",
        "Boiling Point": "198 °C"
    }
}