{
    "cas_no": "107-01-7",
    "key_name": "2-Butene",
    "cn_name": "2-丁烯;",
    "alternate_name": "2-Butene;β-Butylene;Pseudobutylene;β-Butene",
    "duplicated_cas_no": "1735-76-8",
    "SMILES": "C(=CC)C",
    "meta_data": {
        "InChI": "InChI=1S/C4H8/c1-3-4-2/h3-4H,1-2H3",
        "InChIKey": null,
        "Canonical SMILES": "C(=CC)C",
        "Molecular Formula": "C<sub>4</sub>H<sub>8</sub>",
        "Molecular Mass": "56.11",
        "Boiling Point": "3.73 °C",
        "Melting Point": "-139.3 °C",
        "Density": "0.597 g/cm³"
    }
}