{
    "cas_no": "611-97-2",
    "key_name": "4,4′-Dimethylbenzophenone",
    "cn_name": "4,4\"-二甲基二苯甲酮;",
    "alternate_name": "Methanone, bis(4-methylphenyl)-;Benzophenone, 4,4′-dimethyl-;Bis(4-methylphenyl)methanone;Di-<em>p</em>-tolyl ketone;4,4′-Dimethylbenzophenone;<em>p</em>,<em>p</em>′-Dimethylbenzophenone;4,4′-Carbonylbis[toluene];Bis-<em>p</em>-tolyl ketone;Di-<em>p</em>-tolylmethanone;Di(4-methylphenyl) ketone;Bis(4-methylphenyl) ketone;Bis(4-tolyl)methanone;NSC 1807;NSC 37137",
    "duplicated_cas_no": "",
    "SMILES": "C(=O)(C1=CC=C(C)C=C1)C2=CC=C(C)C=C2",
    "meta_data": {
        "InChI": "InChI=1S/C15H14O/c1-11-3-7-13(8-4-11)15(16)14-9-5-12(2)6-10-14/h3-10H,1-2H3",
        "InChIKey": null,
        "Canonical SMILES": "O=C(C1=CC=C(C=C1)C)C2=CC=C(C=C2)C",
        "Molecular Formula": "C<sub>15</sub>H<sub>14</sub>O",
        "Molecular Mass": "210.27",
        "Boiling Point": "334 °C",
        "Melting Point": "96.5 °C"
    }
}