{
    "cas_no": "4105-95-7",
    "key_name": "4-(Octadecyloxy)benzaldehyde",
    "cn_name": "4-十八烷氧苯甲醛;",
    "alternate_name": "Benzaldehyde, 4-(octadecyloxy)-;Benzaldehyde, <em>p</em>-(octadecyloxy)-;4-(Octadecyloxy)benzaldehyde;<em>p</em>-(Octadecyloxy)benzaldehyde;4-(<em>n</em>-Octadecyloxy)benzaldehyde",
    "duplicated_cas_no": "",
    "SMILES": "O(CCCCCCCCCCCCCCCCCC)C1=CC=C(C=O)C=C1",
    "meta_data": {
        "InChI": "InChI=1S/C25H42O2/c1-2-3-4-5-6-7-8-9-10-11-12-13-14-15-16-17-22-27-25-20-18-24(23-26)19-21-25/h18-21,23H,2-17,22H2,1H3",
        "InChIKey": null,
        "Canonical SMILES": "O=CC1=CC=C(OCCCCCCCCCCCCCCCCCC)C=C1",
        "Molecular Formula": "C<sub>25</sub>H<sub>42</sub>O<sub>2</sub>",
        "Molecular Mass": "374.60",
        "Boiling Point": "253-255 °C @ Press: 1 Torr",
        "Melting Point": "51-54 °C"
    }
}