{
    "cas_no": "7429-44-9",
    "key_name": "2-Methoxycyclohexanone",
    "cn_name": null,
    "alternate_name": "Cyclohexanone, 2-methoxy-;2-Methoxycyclohexanone;α-Methoxycyclohexanone;2-Methoxy-1-cyclohexanone;(±)-2-Methoxycyclohexanone",
    "duplicated_cas_no": "87938-34-9",
    "SMILES": "O(C)C1C(=O)CCCC1",
    "meta_data": {
        "InChI": "InChI=1S/C7H12O2/c1-9-7-5-3-2-4-6(7)8/h7H,2-5H2,1H3",
        "InChIKey": null,
        "Canonical SMILES": "O=C1CCCCC1OC",
        "Molecular Formula": "C<sub>7</sub>H<sub>12</sub>O<sub>2</sub>",
        "Molecular Mass": "128.17",
        "Boiling Point": "185 °C",
        "Melting Point": "163 °C",
        "Density": "1.013 g/cm³ @ Temp: 20 °C"
    }
}