{
    "cas_no": "7353-91-5",
    "key_name": "4-(Dimethylamino)phenylmagnesium bromide",
    "cn_name": null,
    "alternate_name": "Magnesium, bromo[4-(dimethylamino)phenyl]-;Magnesium, bromo[<em>p</em>-(dimethylamino)phenyl]-;Aniline, <em>N</em>,<em>N</em>-dimethyl-, <em>p</em>-bromomagnesium deriv.;(<em>p</em>-Dimethylaminophenyl)magnesium bromide;Benzenamine, <em>N</em>,<em>N</em>-dimethyl-, magnesium complex;Bromo[4-(dimethylamino)phenyl]magnesium;4-(Dimethylamino)phenylmagnesium bromide;4-<em>N</em>,<em>N</em>-Dimethylaminophenylmagnesium bromide;Bromo(4-(dimethylamino)phenyl)magnesium;4-(<em>N</em>,<em>N</em>-Dimethyl)aniline magnesium bromide",
    "duplicated_cas_no": "",
    "SMILES": "N(C)(C)C1=CC=C([Mg]Br)C=C1",
    "meta_data": {
        "InChI": "InChI=1S/C8H10N.BrH.Mg/c1-9(2)8-6-4-3-5-7-8;;/h4-7H,1-2H3;1H;/q;;+1/p-1",
        "InChIKey": null,
        "Canonical SMILES": "Br[Mg]C1=CC=C(C=C1)N(C)C",
        "Molecular Formula": "C<sub>8</sub>H<sub>10</sub>BrMgN",
        "Molecular Mass": "",
        "Melting Point": "53-54 °C"
    }
}