{
    "cas_no": "6494-19-5",
    "key_name": "3-Methyl-6-nitro-1<em>H</em>-indazole",
    "cn_name": "3-甲基-6-硝基-1H-吲唑;",
    "alternate_name": "1<em>H</em>-Indazole, 3-methyl-6-nitro-;3-Methyl-6-nitro-1<em>H</em>-indazole;3-Methyl-6-nitroindazole;6-Nitro-3-methylindazole",
    "duplicated_cas_no": "",
    "SMILES": "CC=1C=2C(=CC(N(=O)=O)=CC2)NN1",
    "meta_data": {
        "InChI": "InChI=1S/C8H7N3O2/c1-5-7-3-2-6(11(12)13)4-8(7)10-9-5/h2-4H,1H3,(H,9,10)",
        "InChIKey": null,
        "Canonical SMILES": "O=N(=O)C=1C=CC2=C(C1)NN=C2C",
        "Molecular Formula": "C<sub>8</sub>H<sub>7</sub>N<sub>3</sub>O<sub>2</sub>",
        "Molecular Mass": "177.16",
        "Melting Point": "188-188.5 °C"
    }
}