{
    "cas_no": "957-51-7",
    "key_name": "Diphenamid",
    "cn_name": "双苯酰草胺;",
    "alternate_name": "Benzeneacetamide, <em>N</em>,<em>N</em>-dimethyl-α-phenyl-;Diphenamide;Acetamide, <em>N</em>,<em>N</em>-dimethyl-2,2-diphenyl-;<em>N</em>,<em>N</em>-Dimethyl-α-phenylbenzeneacetamide;Enide 50;L 34314;Lilly 34,314;<em>N</em>,<em>N</em>-Dimethyl-2,2-diphenylacetamide;Dimid;Diphenamid;Dymid;Dif 4;Enide 50W;Enide;<em>N</em>,<em>N</em>-Dimethyl-α,α-diphenylacetamide;<em>N</em>,<em>N</em>-Dimethyldiphenylacetamide;Fenam;Zarur;Rideon;Diherbid;Diphenylacetic acid dimethylamide",
    "duplicated_cas_no": "12697-94-8;73413-06-6",
    "SMILES": "C(C(N(C)C)=O)(C1=CC=CC=C1)C2=CC=CC=C2",
    "meta_data": {
        "InChI": "InChI=1S/C16H17NO/c1-17(2)16(18)15(13-9-5-3-6-10-13)14-11-7-4-8-12-14/h3-12,15H,1-2H3",
        "InChIKey": null,
        "Canonical SMILES": "O=C(N(C)C)C(C=1C=CC=CC1)C=2C=CC=CC2",
        "Molecular Formula": "C<sub>16</sub>H<sub>17</sub>NO",
        "Molecular Mass": "239.31",
        "Melting Point": "134.5-135.5 °C",
        "Density": "1.17 g/cm³ @ Temp: 23.3 °C"
    }
}