{
    "cas_no": "425-75-2",
    "key_name": "Ethyl 1,1,1-trifluoromethanesulfonate",
    "cn_name": "三氟甲烷磺酸乙酯;",
    "alternate_name": "Methanesulfonic acid, 1,1,1-trifluoro-, ethyl ester;Methanesulfonic acid, trifluoro-, ethyl ester;Ethyl 1,1,1-trifluoromethanesulfonate;Ethyl trifluoromethanesulfonate;Ethyl triflate;Ethyl trifluoromethylsulfonate;Trifluoromethanesulfonic acid ethyl ester",
    "duplicated_cas_no": "",
    "SMILES": "S(C(F)(F)F)(OCC)(=O)=O",
    "meta_data": {
        "InChI": "InChI=1S/C3H5F3O3S/c1-2-9-10(7,8)3(4,5)6/h2H2,1H3",
        "InChIKey": null,
        "Canonical SMILES": "O=S(=O)(OCC)C(F)(F)F",
        "Molecular Formula": "C<sub>3</sub>H<sub>5</sub>F<sub>3</sub>O<sub>3</sub>S",
        "Molecular Mass": "178.13",
        "Boiling Point": "115 °C"
    }
}