{
    "cas_no": "461-88-1",
    "key_name": "2,4-Diaminopyridine",
    "cn_name": "2,4-二氨基吡啶;",
    "alternate_name": "2,4-Pyridinediamine;Pyridine, 2,4-diamino-;2,4-Diaminopyridine",
    "duplicated_cas_no": "",
    "SMILES": "NC=1C=C(N)N=CC1",
    "meta_data": {
        "InChI": "InChI=1S/C5H7N3/c6-4-1-2-8-5(7)3-4/h1-3H,(H4,6,7,8)",
        "InChIKey": null,
        "Canonical SMILES": "N=1C=CC(N)=CC1N",
        "Molecular Formula": "C<sub>5</sub>H<sub>7</sub>N<sub>3</sub>",
        "Molecular Mass": "109.13",
        "Melting Point": "107 °C"
    }
}