{
    "cas_no": "81-24-3",
    "key_name": "Taurocholic acid",
    "cn_name": "N-(3α,7α,12α)三羟基-5β-胆甾烷-24-酰基牛黄酸;N-(3α,7α,12α)三羟基-5β-胆甾烷-24-酰基牛黄酸;",
    "alternate_name": "Ethanesulfonic acid, 2-[[(3α,5β,7α,12α)-3,7,12-trihydroxy-24-oxocholan-24-yl]amino]-;Taurine, <em>N</em>-choloyl-;Cholane, ethanesulfonic acid deriv.;2-[[(3α,5β,7α,12α)-3,7,12-Trihydroxy-24-oxocholan-24-yl]amino]ethanesulfonic acid;Cholaic acid;Cholyltaurine;Taurocholic acid;Cholic acid taurine conjugate;3α,7α,12α-Trihydroxy-5β-cholanic acid-24-taurine;<em>N</em>-Choloyltaurine;NSC 25505;MeSH ID: D013656",
    "duplicated_cas_no": "113341-22-3;54366-16-4;83830-80-2",
    "SMILES": "O[C@H]1[C@]2([C@]3([C@@](C)([C@@]([C@@H](CCC(NCCS(=O)(=O)O)=O)C)(CC3)[H])[C@@H](O)C[C@@]2([C@]4(C)[C@](C1)(C[C@H](O)CC4)[H])[H])[H])[H]",
    "meta_data": {
        "InChI": "InChI=1S/C26H45NO7S/c1-15(4-7-23(31)27-10-11-35(32,33)34)18-5-6-19-24-20(14-22(30)26(18,19)3)25(2)9-8-17(28)12-16(25)13-21(24)29/h15-22,24,28-30H,4-14H2,1-3H3,(H,27,31)(H,32,33,34)/t15-,16+,17-,18-,19+,20+,21-,22+,24+,25+,26-/m1/s1",
        "InChIKey": null,
        "Canonical SMILES": "O=C(NCCS(=O)(=O)O)CCC(C)C1CCC2C3C(O)CC4CC(O)CCC4(C)C3CC(O)C12C",
        "Molecular Formula": "C<sub>26</sub>H<sub>45</sub>NO<sub>7</sub>S",
        "Molecular Mass": "515.70",
        "Melting Point": "125 °C (decomp)"
    }
}