{
    "cas_no": "80407-68-7",
    "key_name": "3,4-Bis(2-methoxyethoxy)benzonitrile",
    "cn_name": null,
    "alternate_name": "Benzonitrile, 3,4-bis(2-methoxyethoxy)-;3,4-Bis(2-methoxyethoxy)benzonitrile;3,4-(2-Methoxyethoxy)benzonitrile;3,4-Di(2-methoxyethoxy)benzonitrile",
    "duplicated_cas_no": "",
    "SMILES": "O(CCOC)C1=C(OCCOC)C=CC(C#N)=C1",
    "meta_data": {
        "InChI": "InChI=1S/C13H17NO4/c1-15-5-7-17-12-4-3-11(10-14)9-13(12)18-8-6-16-2/h3-4,9H,5-8H2,1-2H3",
        "InChIKey": null,
        "Canonical SMILES": "N#CC1=CC=C(OCCOC)C(OCCOC)=C1",
        "Molecular Formula": "C<sub>13</sub>H<sub>17</sub>NO<sub>4</sub>",
        "Molecular Mass": "251.28",
        "Melting Point": "39-40 °C"
    }
}