{
    "cas_no": "5205-93-6",
    "key_name": "<em>N</em>-[3-(Dimethylamino)propyl]methacrylamide",
    "cn_name": "N-(3-二甲氨基丙基)甲基丙烯酰胺;",
    "alternate_name": "2-Propenamide, <em>N</em>-[3-(dimethylamino)propyl]-2-methyl-;Acrylamide, <em>N</em>-[3-(dimethylamino)propyl]-2-methyl-;<em>N</em>-[3-(Dimethylamino)propyl]-2-methyl-2-propenamide;<em>N</em>-[3-(Dimethylamino)propyl]methacrylamide;<em>N</em>-[3-(<em>N</em>,<em>N</em>-Dimethylamino)propyl]methacrylamide;Mhoromer BM 611;Dimethyl[3-(methacryloylamino)propyl]amine;<em>N</em>,<em>N</em>-Dimethylaminopropyl methacrylamide;DMAPMA",
    "duplicated_cas_no": "113263-70-0",
    "SMILES": "N(CCCN(C)C)C(C(C)=C)=O",
    "meta_data": {
        "InChI": "InChI=1S/C9H18N2O/c1-8(2)9(12)10-6-5-7-11(3)4/h1,5-7H2,2-4H3,(H,10,12)",
        "InChIKey": null,
        "Canonical SMILES": "O=C(NCCCN(C)C)C(=C)C",
        "Molecular Formula": "C<sub>9</sub>H<sub>18</sub>N<sub>2</sub>O",
        "Molecular Mass": "170.25",
        "Boiling Point": "71-80 °C @ Press: 5 x 10<sup>-3</sup> Torr",
        "Melting Point": "62.0-63.0 °C"
    }
}