{
    "cas_no": "2363-59-9",
    "key_name": "17β-Acetoxyandrosta-1,4-dien-3-one",
    "cn_name": "17-乙酸勃地酮;",
    "alternate_name": "Androsta-1,4-dien-3-one, 17-(acetyloxy)-, (17β)-;Androsta-1,4-dien-3-one, 17β-hydroxy-, acetate;(17β)-17-(Acetyloxy)androsta-1,4-dien-3-one;1-Dehydrotestosterone acetate;1,2-Didehydrotestosterone 17-<em>O</em>-acetate;17β-Acetoxyandrosta-1,4-dien-3-one;Boldenone acetate",
    "duplicated_cas_no": "",
    "SMILES": "C[C@@]12[C@@]3([C@]([C@]4([C@](C)(CC3)[C@@H](OC(C)=O)CC4)[H])(CCC1=CC(=O)C=C2)[H])[H]",
    "meta_data": {
        "InChI": "InChI=1S/C21H28O3/c1-13(22)24-19-7-6-17-16-5-4-14-12-15(23)8-10-20(14,2)18(16)9-11-21(17,19)3/h8,10,12,16-19H,4-7,9,11H2,1-3H3/t16-,17-,18-,19-,20-,21-/m0/s1",
        "InChIKey": null,
        "Canonical SMILES": "O=C1C=CC2(C(=C1)CCC3C2CCC4(C)C(OC(=O)C)CCC34)C",
        "Molecular Formula": "C<sub>21</sub>H<sub>28</sub>O<sub>3</sub>",
        "Molecular Mass": "328.45",
        "Melting Point": "149-151 °C"
    }
}