{
    "cas_no": "18749-71-8",
    "key_name": "Sitoindoside I",
    "cn_name": null,
    "alternate_name": "β-<span class=\"text-smallcaps\">D</span>-Glucopyranoside, (3β)-stigmast-5-en-3-yl, 6-hexadecanoate;Stigmast-5-en-3β-ol, β-<span class=\"text-smallcaps\">D</span>-glucopyranoside, 6′-palmitate;Palmitic acid, ester with β-sitosterol glucoside;Stigmastane, β-<span class=\"text-smallcaps\">D</span>-glucopyranoside deriv.;β-Sitosteryl-β-<span class=\"text-smallcaps\">D</span>-glucoside-6-monopalmitate;β-Sitosteryl β-<span class=\"text-smallcaps\">D</span>-glucoside monopalmitate;Sitoindoside I;6′-<em>O</em>-Palmitoyl-β-sitosterol-3-<em>O</em>-β-glucopyranoside;6′-<em>O</em>-Palmitoylsitosterol-3-<em>O</em>-β-<span class=\"text-smallcaps\">D</span>-glucoside;Sitosteryl (6′-<em>O</em>-palmitoyl)-3β-<span class=\"text-smallcaps\">D</span>-glucopyranoside;Sitoindoside;Longiside B;Stigmast-5-en-3-β-6′-palmitoylglucopyranoside;Daucosterol 6′-<em>O</em>-palmitate;Sitosterol 3β-<em>O</em>-[6′-palmitoyl-β-<span class=\"text-smallcaps\">D</span>-glucopyranoside];β-Sitosterol glucoside 6′-<em>O</em>-monopalmitate;Stigmast-5-en-3β-<em>O</em>-(6-<em>O</em>-hexadecanoyl-β-<span class=\"text-smallcaps\">D</span>-glucopyranoside);3-<em>O</em>-(6′-<em>O</em>-Palmitoyl-β-<span class=\"text-smallcaps\">D</span>-glucosyl)-β-sitosterol;(-)-β-Sitosterol 3-<em>O</em>-β-<span class=\"text-smallcaps\">D</span>-(6-<em>O</em>-palmitoyl)glucopyranoside;16:0-Glc-sitosterol;β-Sitosteryl 3β-glucopyranoside 6-<em>O</em> palmitate;β-Sitosterol-3-<em>O</em>-α-<span class=\"text-smallcaps\">L</span>-(6′-<em>O</em>-hexadecanoyl) glucoside;3-<em>O</em>-[(6′-<em>O</em>-Palmitoyl)-β-<span class=\"text-smallcaps\">D</span>-glucopyranosyl]sitosterol",
    "duplicated_cas_no": "2172974-57-9",
    "SMILES": "C[C@@]12[C@@]3([C@]([C@]4([C@](C)(CC3)[C@@]([C@@H](CC[C@H](C(C)C)CC)C)(CC4)[H])[H])(CC=C1C[C@@H](O[C@@H]5O[C@H](COC(CCCCCCCCCCCCCCC)=O)[C@@H](O)[C@H](O)[C@H]5O)CC2)[H])[H]",
    "meta_data": {
        "InChI": "InChI=1S/C51H90O7/c1-8-10-11-12-13-14-15-16-17-18-19-20-21-22-45(52)56-34-44-46(53)47(54)48(55)49(58-44)57-39-29-31-50(6)38(33-39)25-26-40-42-28-27-41(51(42,7)32-30-43(40)50)36(5)23-24-37(9-2)35(3)4/h25,35-37,39-44,46-49,53-55H,8-24,26-34H2,1-7H3/t36-,37-,39+,40+,41-,42+,43+,44-,46-,47+,48-,49-,50+,51-/m1/s1",
        "InChIKey": null,
        "Canonical SMILES": "O=C(OCC1OC(OC2CC3=CCC4C(CCC5(C)C(CCC45)C(C)CCC(CC)C(C)C)C3(C)CC2)C(O)C(O)C1O)CCCCCCCCCCCCCCC",
        "Molecular Formula": "C<sub>51</sub>H<sub>90</sub>O<sub>7</sub>",
        "Molecular Mass": "815.26",
        "Melting Point": "163-165 °C"
    }
}