{
    "cas_no": "1560-28-7",
    "key_name": "1-Chloro-1,1,2,2,2-pentamethyldisilane",
    "cn_name": null,
    "alternate_name": "Disilane, 1-chloro-1,1,2,2,2-pentamethyl-;Disilane, chloropentamethyl-;1-Chloro-1,1,2,2,2-pentamethyldisilane;Chloropentamethyldisilane;Pentamethylchlorodisilane;Chlorodimethyl(trimethylsilyl)silane;Monochloropentamethyl disilane",
    "duplicated_cas_no": "",
    "SMILES": "[Si]([Si](C)(C)Cl)(C)(C)C",
    "meta_data": {
        "InChI": "InChI=1S/C5H15ClSi2/c1-7(2,3)8(4,5)6/h1-5H3",
        "InChIKey": null,
        "Canonical SMILES": "Cl[Si](C)(C)[Si](C)(C)C",
        "Molecular Formula": "C<sub>5</sub>H<sub>15</sub>ClSi<sub>2</sub>",
        "Molecular Mass": "166.80",
        "Boiling Point": "134-135 °C",
        "Density": "0.868 g/cm³"
    }
}