{
    "cas_no": "370-50-3",
    "key_name": "Flucofuron",
    "cn_name": null,
    "alternate_name": "Urea, <em>N</em>,<em>N</em>′-bis[4-chloro-3-(trifluoromethyl)phenyl]-;Carbanilide, 4,4′-dichloro-3,3′-bis(trifluoromethyl)-;<em>N</em>,<em>N</em>′-Bis[4-chloro-3-(trifluoromethyl)phenyl]urea;Mitin N;Flucofuron;Flucofenuron;1,3-Bis(4-chloro-3-(trifluoromethyl)phenyl)urea",
    "duplicated_cas_no": "",
    "SMILES": "N(C(NC1=CC(C(F)(F)F)=C(Cl)C=C1)=O)C2=CC(C(F)(F)F)=C(Cl)C=C2",
    "meta_data": {
        "InChI": "InChI=1S/C15H8Cl2F6N2O/c16-11-3-1-7(5-9(11)14(18,19)20)24-13(26)25-8-2-4-12(17)10(6-8)15(21,22)23/h1-6H,(H2,24,25,26)",
        "InChIKey": null,
        "Canonical SMILES": "O=C(NC1=CC=C(Cl)C(=C1)C(F)(F)F)NC2=CC=C(Cl)C(=C2)C(F)(F)F",
        "Molecular Formula": "C<sub>15</sub>H<sub>8</sub>Cl<sub>2</sub>F<sub>6</sub>N<sub>2</sub>O",
        "Molecular Mass": "417.13",
        "Melting Point": "231-232 °C"
    }
}