{
    "cas_no": "36603-49-3",
    "key_name": "2-(4-Bromophenoxy)tetrahydro-2<em>H</em>-pyran",
    "cn_name": "2-对溴苯氧基四氢吡喃;",
    "alternate_name": "2<em>H</em>-Pyran, 2-(4-bromophenoxy)tetrahydro-;Pyran, 2-(<em>p</em>-bromophenoxy)tetrahydro-;2-(4-Bromophenoxy)tetrahydro-2<em>H</em>-pyran;<em>p</em>-Bromotetrahydro-2-(pyranyloxy)benzene;<em>p</em>-(2-Tetrahydropyranyloxy)phenyl bromide;4-(2-Tetrahydropyranyloxy)phenyl bromide;4-Bromophenyl 2-tetrahydropyranyl ether;<em>p</em>-(Tetrahydropyranyloxy)phenyl bromide;4-(2-Tetrahydropyranyloxy)bromobenzene;2-(4-Bromophenoxy)tetrahydropyran;2-(4-Bromophenoxy)-2<em>H</em>-tetrahydropyran;4-Bromophenyl THP ether;1-Bromo-4-[(tetrahydro-2<em>H</em>-pyran-2-yl)oxy]benzene;2-(4-Bromophenoxy)oxane",
    "duplicated_cas_no": "",
    "SMILES": "O(C1=CC=C(Br)C=C1)C2CCCCO2",
    "meta_data": {
        "InChI": "InChI=1S/C11H13BrO2/c12-9-4-6-10(7-5-9)14-11-3-1-2-8-13-11/h4-7,11H,1-3,8H2",
        "InChIKey": null,
        "Canonical SMILES": "BrC1=CC=C(OC2OCCCC2)C=C1",
        "Molecular Formula": "C<sub>11</sub>H<sub>13</sub>BrO<sub>2</sub>",
        "Molecular Mass": "257.12",
        "Boiling Point": "109 °C @ Press: 0.26 Torr",
        "Melting Point": "57-57.5 °C"
    }
}