{
    "cas_no": "98-27-1",
    "key_name": "4-<em>tert</em>-Butyl-2-methylphenol",
    "cn_name": "2-羟基-4-甲基苯甲醛;4-叔丁基-2-甲基苯酚;",
    "alternate_name": "Phenol, 4-(1,1-dimethylethyl)-2-methyl-;<em>o</em>-Cresol, 4-<em>tert</em>-butyl-;4-(1,1-Dimethylethyl)-2-methylphenol;4-<em>tert</em>-Butyl-<em>o</em>-cresol;<em>p</em>-<em>tert</em>-Butyl-<em>o</em>-cresol;2-Methyl-4-<em>tert</em>-butylphenol;4-<em>tert</em>-Butyl-2-methylphenol;<em>p</em>-<em>tert</em>-Butyl-2-methylphenol;NSC 8477;NSC 98355",
    "duplicated_cas_no": "",
    "SMILES": "C(C)(C)(C)C1=CC(C)=C(O)C=C1",
    "meta_data": {
        "InChI": "InChI=1S/C11H16O/c1-8-7-9(11(2,3)4)5-6-10(8)12/h5-7,12H,1-4H3",
        "InChIKey": null,
        "Canonical SMILES": "OC1=CC=C(C=C1C)C(C)(C)C",
        "Molecular Formula": "C<sub>11</sub>H<sub>16</sub>O",
        "Molecular Mass": "164.24",
        "Boiling Point": "237 °C",
        "Melting Point": "27.5 °C",
        "Density": "0.9404 g/cm³ @ Temp: 20 °C"
    }
}