{
    "cas_no": "15029-30-8",
    "key_name": "β-Oxo-1-piperidinepropanenitrile",
    "cn_name": "N-氰乙酰基哌啶;1-氰基乙酰哌啶;N-氰乙酰基哌啶;N-氰基乙酰基哌啶;",
    "alternate_name": "1-Piperidinepropanenitrile, β-oxo-;Piperidine, 1-(cyanoacetyl)-;1-Piperidinepropionitrile, β-oxo-;β-Oxo-1-piperidinepropanenitrile;Cyanoacetopiperidide;1-(Cyanoacetyl)piperidine;Piperidinocarbonylacetonitrile;Cyanoacetic acid piperidide;NSC 102772;3-Oxo-3-(piperidin-1-yl)propanenitrile;3-Oxo-3-piperidin-1-yl-propionitrile",
    "duplicated_cas_no": "",
    "SMILES": "C(CC#N)(=O)N1CCCCC1",
    "meta_data": {
        "InChI": "InChI=1S/C8H12N2O/c9-5-4-8(11)10-6-2-1-3-7-10/h1-4,6-7H2",
        "InChIKey": null,
        "Canonical SMILES": "N#CCC(=O)N1CCCCC1",
        "Molecular Formula": "C<sub>8</sub>H<sub>12</sub>N<sub>2</sub>O",
        "Molecular Mass": "152.19",
        "Melting Point": "88-89 °C"
    }
}