{
    "cas_no": "3073-87-8",
    "key_name": "Dimethyl-POPOP",
    "cn_name": "1,4-二[2-(4-甲基-5-苯基恶唑)]苯;",
    "alternate_name": "Oxazole, 2,2′-(1,4-phenylene)bis[4-methyl-5-phenyl-;Oxazole, 2,2′-<em>p</em>-phenylenebis[4-methyl-5-phenyl-;2,2′-(1,4-Phenylene)bis[4-methyl-5-phenyloxazole];1,4-Bis(4-methyl-5-phenyl-2-oxazolyl)benzene;1,4-Bis[2-(4-methyl-5-phenyloxazolyl)]benzene;<em>p</em>-Bis(2-(4-methyl-5-phenyloxazolyl))benzene;2-<em>p</em>-Phenylenebis(4-methyl-5-phenyloxazole);Dimethyl-POPOP;1,4-Bis[2-(4-methyl-5-phenyloxazolylyl)]benzene;DMPOPOP;2,2′-<em>p</em>-Phenylenebis(4-methyl-5-phenyloxazole)",
    "duplicated_cas_no": "",
    "SMILES": "CC1=C(OC(=N1)C2=CC=C(C=C2)C=3OC(=C(C)N3)C4=CC=CC=C4)C5=CC=CC=C5",
    "meta_data": {
        "InChI": "InChI=1S/C26H20N2O2/c1-17-23(19-9-5-3-6-10-19)29-25(27-17)21-13-15-22(16-14-21)26-28-18(2)24(30-26)20-11-7-4-8-12-20/h3-16H,1-2H3",
        "InChIKey": null,
        "Canonical SMILES": "N1=C(OC(C2=CC=CC=C2)=C1C)C3=CC=C(C=C3)C4=NC(=C(O4)C5=CC=CC=C5)C",
        "Molecular Formula": "C<sub>26</sub>H<sub>20</sub>N<sub>2</sub>O<sub>2</sub>",
        "Molecular Mass": "392.45",
        "Melting Point": "233-234 °C"
    }
}