{
    "cas_no": "15625-89-5",
    "key_name": "Trimethylolpropane triacrylate",
    "cn_name": null,
    "alternate_name": "2-Propenoic acid, 1,1′-[2-ethyl-2-[[(1-oxo-2-propen-1-yl)oxy]methyl]-1,3-propanediyl] ester;Acrylic acid, triester with 2-ethyl-2-(hydroxymethyl)-1,3-propanediol;2-Propenoic acid, 2-ethyl-2-[[(1-oxo-2-propenyl)oxy]methyl]-1,3-propanediyl ester;1,3-Propanediol, 2-ethyl-2-(hydroxymethyl)-, triacrylate;Trimethylolpropane triacrylate;SR 351;Sartomer SR 351;NK Ester A-TMPT;Monocizer TD 1500A;Viscoat 295;Setalux UV 2241;A-TMPT;Aronix M 309;Kayarad TMPTA;TMPTA;Light Acrylate TMP-A;2-Ethyl-2-(hydroxymethyl)-1,3-propanediol triacrylate;TMP 3A;Ageflex TMPTA;Saret 351;M 309;Blemmer ATT;TD 1500A;Sartomer 357;Sartomer 351;M 308;Aronix M 308;Newfrontier TMPT;M 380;Kayarad KS-TMPTA;Neomer TA 300;Photomer 4006;SR 351HP;Aronix M 709;TMPTA-N;KS-TMPTA;TMP 3A3;Laromer TMPTA;V 295;M 300;Genomer 1330;T 30;Etermer 231;SR 351H;SR 351LV;Photomer 4006F;SR 351S;Miramer M 300;TMP-A;SR 519HP;Ebecryl TMPTA;Viscoat V 295;Kayarad M 309;EM 231;SM 631;SR 315S;Viscoat PET-S;EM 231TF;Miramer 300;SR 351NS;Etermer EM 231;SR 354;SR 454D-NS;1,1,1-Tri(acryloyloxymethyl)propane;LM 353;Saret SR 519HP;Cognis 4006;CLM 400;Sartomer 351HP;2,2-Bis[(acryloyloxy)methyl]butyl acrylate;AgiSyn 2811;EM 232;PL 400;2,2-Bis(prop-2-enoyloxymethyl)butyl prop-2-enoate;SR 305;Viscoat TMP 3A;Laromer PR 9119;2-((Acryloyloxy)methyl)-2-ethylpropane-1,3-diyl diacrylate;GM 63C00;LuCure 562;1005TF;15EODA;H 322;A-TMPTA;YTM 6350;RM 301;PN 3601;YTM 6300",
    "duplicated_cas_no": "58998-51-9;72269-91-1;100465-65-4;116335-81-0;117079-82-0;159251-16-8;162193-38-6;199685-35-3;255831-11-9;352031-28-8;1186622-07-0;1199921-30-6;1325731-65-4;1798797-17-7;2763540-96-9",
    "SMILES": "C(COC(C=C)=O)(COC(C=C)=O)(COC(C=C)=O)CC",
    "meta_data": {
        "InChI": "InChI=1S/C15H20O6/c1-5-12(16)19-9-15(8-4,10-20-13(17)6-2)11-21-14(18)7-3/h5-7H,1-3,8-11H2,4H3",
        "InChIKey": null,
        "Canonical SMILES": "O=C(OCC(COC(=O)C=C)(COC(=O)C=C)CC)C=C",
        "Molecular Formula": "C<sub>15</sub>H<sub>20</sub>O<sub>6</sub>",
        "Molecular Mass": "296.32",
        "Boiling Point": "&gt;100 °C",
        "Density": "1.089 g/cm³ @ Temp: 20 °C"
    }
}