{
    "cas_no": "16924-03-1",
    "key_name": "Niobate(2-), heptafluoro-, potassium (1:2)",
    "cn_name": "七氟铌(V)酸钾;七氟铌酸(Ⅴ)钾;七氟络铌酸钾；氟铌酸钾;",
    "alternate_name": "Niobate(2-), heptafluoro-, potassium (1:2);Niobate(2-), heptafluoro-, dipotassium;Potassium heptafluoroniobate(V);Potassium fluoniobate(V) (K<sub>2</sub>NbF<sub>7</sub>);Dipotassium heptafluoroniobate(2-);Niobium potassium fluoride (NbK<sub>2</sub>F<sub>7</sub>);Dipotassium heptafluoroniobate;Potassium niobium fluoride(k2nbf7);NSC 154397",
    "duplicated_cas_no": "11094-72-7;12315-05-8",
    "SMILES": "[Nb+5]([F-])([F-])([F-])([F-])([F-])([F-])[F-].[K+]",
    "meta_data": {
        "InChI": "InChI=1S/7FH.2K.Nb/h7*1H;;;/q;;;;;;;2*+1;+5/p-7",
        "InChIKey": null,
        "Canonical SMILES": "[K+].[F-][Nb+5]([F-])([F-])([F-])([F-])([F-])[F-]",
        "Molecular Formula": "F<sub>7</sub>Nb.2K",
        "Molecular Mass": "",
        "Melting Point": "735 °C"
    }
}