{
    "cas_no": "2719-08-6",
    "key_name": "Methyl <em>N</em>-acetylanthranilate",
    "cn_name": "2-(乙酰氨基)苯甲酸甲酯;",
    "alternate_name": "Benzoic acid, 2-(acetylamino)-, methyl ester;Anthranilic acid, <em>N</em>-acetyl-, methyl ester;Methyl <em>N</em>-acetylanthranilate;Methyl <em>N</em>-acetoanthranilate;<em>o</em>-Acetamidobenzoic acid methyl ester;Methyl 2-acetamidobenzoate;Methyl 2-(acetylamino)benzoate;<em>o</em>-(Methoxycarbonyl)acetanilide;NSC 45919;<em>N</em>-(2-(Methoxycarbonyl)phenyl) acetamide;2-(Acetylamino)benzoic acid methyl ester",
    "duplicated_cas_no": "",
    "SMILES": "N(C(C)=O)C1=C(C(OC)=O)C=CC=C1",
    "meta_data": {
        "InChI": "InChI=1S/C10H11NO3/c1-7(12)11-9-6-4-3-5-8(9)10(13)14-2/h3-6H,1-2H3,(H,11,12)",
        "InChIKey": null,
        "Canonical SMILES": "O=C(OC)C=1C=CC=CC1NC(=O)C",
        "Molecular Formula": "C<sub>10</sub>H<sub>11</sub>NO<sub>3</sub>",
        "Molecular Mass": "193.20",
        "Melting Point": "99-100 °C"
    }
}