{
    "cas_no": "20069-09-4",
    "key_name": "Piperlongumine",
    "cn_name": "荜茇酰胺;",
    "alternate_name": "2(1<em>H</em>)-Pyridinone, 5,6-dihydro-1-[(2<em>E</em>)-1-oxo-3-(3,4,5-trimethoxyphenyl)-2-propen-1-yl]-;2(1<em>H</em>)-Pyridone, 5,6-dihydro-1-(3,4,5-trimethoxycinnamoyl)-;2(1<em>H</em>)-Pyridinone, 5,6-dihydro-1-[1-oxo-3-(3,4,5-trimethoxyphenyl)-2-propenyl]-, (<em>E</em>)-;2(1<em>H</em>)-Pyridinone, 5,6-dihydro-1-[(2<em>E</em>)-1-oxo-3-(3,4,5-trimethoxyphenyl)-2-propenyl]-;5,6-Dihydro-1-[(2<em>E</em>)-1-oxo-3-(3,4,5-trimethoxyphenyl)-2-propen-1-yl]-2(1<em>H</em>)-pyridinone;Piperlongumine;Piplartine;Piplartin",
    "duplicated_cas_no": "2859-00-9;11042-67-4;25343-05-9",
    "SMILES": "O(C)C1=C(OC)C(OC)=CC(/C=C/C(=O)N2C(=O)C=CCC2)=C1",
    "meta_data": {
        "InChI": "InChI=1S/C17H19NO5/c1-21-13-10-12(11-14(22-2)17(13)23-3)7-8-16(20)18-9-5-4-6-15(18)19/h4,6-8,10-11H,5,9H2,1-3H3/b8-7+",
        "InChIKey": null,
        "Canonical SMILES": "O=C(C=CC1=CC(OC)=C(OC)C(OC)=C1)N2C(=O)C=CCC2",
        "Molecular Formula": "C<sub>17</sub>H<sub>19</sub>NO<sub>5</sub>",
        "Molecular Mass": "317.34",
        "Melting Point": "124 °C"
    }
}