{
    "cas_no": "364-98-7",
    "key_name": "Diazoxide",
    "cn_name": "氯甲苯噻嗪;二氮嗪;降压嗪;",
    "alternate_name": "2<em>H</em>-1,2,4-Benzothiadiazine, 7-chloro-3-methyl-, 1,1-dioxide;4<em>H</em>-1,2,4-Benzothiadiazine, 7-chloro-3-methyl-, 1,1-dioxide;SRG 95213;7-Chloro-3-methyl-2<em>H</em>-1,2,4-benzothiadiazine 1,1-dioxide;Diazoxide;Dizoxide;Hyperstat;3-Methyl-7-chloro-1,2,4-benzothiadiazine 1,1-dioxide;Proglicem;Mutabase;NSC 64198;Eudemine injection;Sch 6783;Hypertonalum;Proglycem;NSC 76130;MeSH ID: D003981",
    "duplicated_cas_no": "1342899-70-0",
    "SMILES": "O=S1(=O)C=2C(NC(C)=N1)=CC=C(Cl)C2",
    "meta_data": {
        "InChI": "InChI=1S/C8H7ClN2O2S/c1-5-10-7-3-2-6(9)4-8(7)14(12,13)11-5/h2-4H,1H3,(H,10,11)",
        "InChIKey": null,
        "Canonical SMILES": "O=S1(=O)N=C(NC2=CC=C(Cl)C=C21)C",
        "Molecular Formula": "C<sub>8</sub>H<sub>7</sub>ClN<sub>2</sub>O<sub>2</sub>S",
        "Molecular Mass": "230.67",
        "Melting Point": "330.5 °C"
    }
}