{
    "cas_no": "1838-59-1",
    "key_name": "Allyl formate",
    "cn_name": "甲酸烯丙酯;甲酸烯丙酯;蚁酸烯丙酯；2-丙烯基甲酸酯；甲酸-2-丙烯酯;",
    "alternate_name": "Formic acid, 2-propen-1-yl ester;Formic acid, allyl ester;Formic acid, 2-propenyl ester;Allyl alcohol, formate;Allyl formate;NSC 4735;2-Propenyl ester formic acid;3-Formyloxy-propene",
    "duplicated_cas_no": "",
    "SMILES": "C(OC=O)C=C",
    "meta_data": {
        "InChI": "InChI=1S/C4H6O2/c1-2-3-6-4-5/h2,4H,1,3H2",
        "InChIKey": null,
        "Canonical SMILES": "O=COCC=C",
        "Molecular Formula": "C<sub>4</sub>H<sub>6</sub>O<sub>2</sub>",
        "Molecular Mass": "86.09",
        "Boiling Point": "83.6 °C"
    }
}