{
    "cas_no": "26399-36-0",
    "key_name": "Profluralin",
    "cn_name": "环丙氟灵;",
    "alternate_name": "Benzenamine, <em>N</em>-(cyclopropylmethyl)-2,6-dinitro-<em>N</em>-propyl-4-(trifluoromethyl)-;<em>p</em>-Toluidine, <em>N</em>-(cyclopropylmethyl)-α,α,α-trifluoro-2,6-dinitro-<em>N</em>-propyl-;<em>N</em>-(Cyclopropylmethyl)-2,6-dinitro-<em>N</em>-propyl-4-(trifluoromethyl)benzenamine;CGA 10832;<em>N</em>-Cyclopropylmethyl-<em>N</em>-propyl-4-trifluoromethyl-2,6-dinitroaniline;CG 10832;ER 5461;Profluralin;Tolban;SGA 10832;B 4576;Pregard",
    "duplicated_cas_no": "11096-25-6;12676-46-9;52002-14-9",
    "SMILES": "N(CC1CC1)(CCC)C2=C(N(=O)=O)C=C(C(F)(F)F)C=C2N(=O)=O",
    "meta_data": {
        "InChI": "InChI=1S/C14H16F3N3O4/c1-2-5-18(8-9-3-4-9)13-11(19(21)22)6-10(14(15,16)17)7-12(13)20(23)24/h6-7,9H,2-5,8H2,1H3",
        "InChIKey": null,
        "Canonical SMILES": "O=N(=O)C=1C=C(C=C(C1N(CCC)CC2CC2)N(=O)=O)C(F)(F)F",
        "Molecular Formula": "C<sub>14</sub>H<sub>16</sub>F<sub>3</sub>N<sub>3</sub>O<sub>4</sub>",
        "Molecular Mass": "347.29",
        "Melting Point": "33-36 °C"
    }
}