{
    "cas_no": "1006-41-3",
    "key_name": "2-Bromo-4-fluorobenzoic acid",
    "cn_name": null,
    "alternate_name": "Benzoic acid, 2-bromo-4-fluoro-;2-Bromo-4-fluorobenzoic acid;4-Fluoro-2-bromobenzoic acid",
    "duplicated_cas_no": "",
    "SMILES": "C(O)(=O)C1=C(Br)C=C(F)C=C1",
    "meta_data": {
        "InChI": "InChI=1S/C7H4BrFO2/c8-6-3-4(9)1-2-5(6)7(10)11/h1-3H,(H,10,11)",
        "InChIKey": null,
        "Canonical SMILES": "O=C(O)C1=CC=C(F)C=C1Br",
        "Molecular Formula": "C<sub>7</sub>H<sub>4</sub>BrFO<sub>2</sub>",
        "Molecular Mass": "219.01",
        "Melting Point": "171-172.5 °C"
    }
}