{
    "cas_no": "1780-40-1",
    "key_name": "2,4,5,6-Tetrachloropyrimidine",
    "cn_name": "2,4,5,6-四氯嘧啶;",
    "alternate_name": "Pyrimidine, 2,4,5,6-tetrachloro-;Pyrimidine, tetrachloro-;2,4,5,6-Tetrachloropyrimidine;Tetrachloropyrimidine;Perchloropyrimidine;NSC 35123",
    "duplicated_cas_no": "",
    "SMILES": "ClC=1C(Cl)=NC(Cl)=NC1Cl",
    "meta_data": {
        "InChI": "InChI=1S/C4Cl4N2/c5-1-2(6)9-4(8)10-3(1)7",
        "InChIKey": null,
        "Canonical SMILES": "ClC=1N=C(Cl)C(Cl)=C(Cl)N1",
        "Molecular Formula": "C<sub>4</sub>Cl<sub>4</sub>N<sub>2</sub>",
        "Molecular Mass": "217.87",
        "Boiling Point": "108-109 °C @ Press: 11 Torr",
        "Melting Point": "66-68 °C"
    }
}