{
    "cas_no": "64920-29-2",
    "key_name": "Ethyl α-oxobenzenebutanoate",
    "cn_name": "2-氧代-4-苯基丁酸乙酯;",
    "alternate_name": "Benzenebutanoic acid, α-oxo-, ethyl ester;Ethyl α-oxobenzenebutanoate;Ethyl 4-phenyl-2-oxobutanoate;Ethyl 4-phenyl-2-ketobutyrate;Ethyl 3-benzylpyruvate;Ethyl 4-phenyl-2-oxobutyrate;Ethyl benzylpyruvate;Ethyl 2-oxo-4-phenylbutanoate;4-Phenyl-2-oxobutyric acid ethyl ester;2-Oxo-4-phenylbutyric acid ethyl ester;Ethyl 2-oxo-4-phenylbutyrate;2-Oxo-4-phenylbutanoic acid ethyl ester",
    "duplicated_cas_no": "",
    "SMILES": "C(CC(C(OCC)=O)=O)C1=CC=CC=C1",
    "meta_data": {
        "InChI": "InChI=1S/C12H14O3/c1-2-15-12(14)11(13)9-8-10-6-4-3-5-7-10/h3-7H,2,8-9H2,1H3",
        "InChIKey": null,
        "Canonical SMILES": "O=C(OCC)C(=O)CCC=1C=CC=CC1",
        "Molecular Formula": "C<sub>12</sub>H<sub>14</sub>O<sub>3</sub>",
        "Molecular Mass": "206.24",
        "Boiling Point": "256-258 °C @ Press: 760 Torr"
    }
}