{
    "cas_no": "4225-86-9",
    "key_name": "2-Chloro-8-nitroquinoline",
    "cn_name": null,
    "alternate_name": "Quinoline, 2-chloro-8-nitro-;2-Chloro-8-nitroquinoline;NSC 263744",
    "duplicated_cas_no": "",
    "SMILES": "N(=O)(=O)C=1C2=C(C=CC(Cl)=N2)C=CC1",
    "meta_data": {
        "InChI": "InChI=1S/C9H5ClN2O2/c10-8-5-4-6-2-1-3-7(12(13)14)9(6)11-8/h1-5H",
        "InChIKey": null,
        "Canonical SMILES": "O=N(=O)C1=CC=CC2=CC=C(Cl)N=C21",
        "Molecular Formula": "C<sub>9</sub>H<sub>5</sub>ClN<sub>2</sub>O<sub>2</sub>",
        "Molecular Mass": "208.60",
        "Melting Point": "149 °C"
    }
}