{
    "cas_no": "1045-69-8",
    "key_name": "Testosterone, acetate",
    "cn_name": "醋酸睾酮;17-乙酸睾丸激素;",
    "alternate_name": "Androst-4-en-3-one, 17-(acetyloxy)-, (17β)-;Testosterone, acetate;(17β)-17-(Acetyloxy)androst-4-en-3-one;Aceto-sterandryl;Aceto-testoviron;17β-Acetoxy-Δ<sup>4</sup>-androsten-3-one;17β-Acetoxy-4-androsten-3-one;Perandrone A;Testosterone 17-acetate;SKF 5647;17β-Hydroxyandrost-4-en-3-one-17β-acetate;Androst-4-en-17β-ol-3-one acetate;17β-Hydroxyandrost-4-en-3-one acetate;Amolisin;Androtest A;Deposteron;Farmatest;3-Oxoandrost-4-en-17β-yl acetate;4-Androsten-17β-ol-3-one 17-acetate;17β-Acetoxyandrost-4-ene-3-one;17β-Acetoxytestosterone;17-<em>O</em>-Acetyltestosterone;NSC 523836;4-Androstene-17β-ol-3-one acetate",
    "duplicated_cas_no": "117569-38-7;2602564-48-5",
    "SMILES": "C[C@@]12[C@@]3([C@]([C@]4([C@](C)(CC3)[C@@H](OC(C)=O)CC4)[H])(CCC1=CC(=O)CC2)[H])[H]",
    "meta_data": {
        "InChI": "InChI=1S/C21H30O3/c1-13(22)24-19-7-6-17-16-5-4-14-12-15(23)8-10-20(14,2)18(16)9-11-21(17,19)3/h12,16-19H,4-11H2,1-3H3/t16-,17-,18-,19-,20-,21-/m0/s1",
        "InChIKey": null,
        "Canonical SMILES": "O=C(OC1CCC2C3CCC4=CC(=O)CCC4(C)C3CCC12C)C",
        "Molecular Formula": "C<sub>21</sub>H<sub>30</sub>O<sub>3</sub>",
        "Molecular Mass": "330.46",
        "Melting Point": "140-141 °C"
    }
}