{
    "cas_no": "151157-49-2",
    "key_name": "1-(4-Bromophenyl)cyclobutanecarboxylic acid",
    "cn_name": null,
    "alternate_name": "Cyclobutanecarboxylic acid, 1-(4-bromophenyl)-;1-(4-Bromophenyl)cyclobutanecarboxylic acid;1-(4-Bromophenyl)cyclobutane-1-carboxylic acid",
    "duplicated_cas_no": "",
    "SMILES": "C(O)(=O)C1(CCC1)C2=CC=C(Br)C=C2",
    "meta_data": {
        "InChI": "InChI=1S/C11H11BrO2/c12-9-4-2-8(3-5-9)11(10(13)14)6-1-7-11/h2-5H,1,6-7H2,(H,13,14)",
        "InChIKey": null,
        "Canonical SMILES": "O=C(O)C1(C2=CC=C(Br)C=C2)CCC1",
        "Molecular Formula": "C<sub>11</sub>H<sub>11</sub>BrO<sub>2</sub>",
        "Molecular Mass": "255.11",
        "Melting Point": "113.6-114.6 °C"
    }
}