{
    "cas_no": "97-51-8",
    "key_name": "5-Nitrosalicylaldehyde",
    "cn_name": "5-硝基水杨醛;",
    "alternate_name": "Benzaldehyde, 2-hydroxy-5-nitro-;Salicylaldehyde, 5-nitro-;2-Hydroxy-5-nitrobenzaldehyde;5-Nitro-2-hydroxybenzaldehyde;5-Nitrosalicylaldehyde;6-Hydroxy-3-nitrobenzaldehyde;2-Formyl-4-nitrophenol;NSC 881;NSC 97387;5-Nitrosalicylaladhyde;2-Hydroxy-5-nitrobenzaldehye",
    "duplicated_cas_no": "1186389-55-8;1391922-17-0",
    "SMILES": "C(=O)C1=CC(N(=O)=O)=CC=C1O",
    "meta_data": {
        "InChI": "InChI=1S/C7H5NO4/c9-4-5-3-6(8(11)12)1-2-7(5)10/h1-4,10H",
        "InChIKey": null,
        "Canonical SMILES": "O=CC1=CC(=CC=C1O)N(=O)=O",
        "Molecular Formula": "C<sub>7</sub>H<sub>5</sub>NO<sub>4</sub>",
        "Molecular Mass": "167.12",
        "Melting Point": "126 °C"
    }
}