{
    "cas_no": "31329-57-4",
    "key_name": "Naftidrofuryl",
    "cn_name": "萘呋胺;萘呋胺;萘呋胺酯;萘呋胺脂;3-(1-萘基)-2-四氢糠基丙酸2-二乙氨基乙酯;",
    "alternate_name": "2-Furanpropanoic acid, tetrahydro-α-(1-naphthalenylmethyl)-, 2-(diethylamino)ethyl ester;2-Furanpropionic acid, tetrahydro-α-(1-naphthylmethyl)-, 2-(diethylamino)ethyl ester;2-(Diethylamino)ethyl tetrahydro-α-(1-naphthylmethyl)-2-furanpropionate ester;Naftidrofuryl;<em>N</em>-Diethylamino ethyl β-(1-naphthol)-β-(2-tetrahydrofuryl)isobutyrate oxolate salt;Nafronyl;Naphtidrofuryl;LS 84;Gevatran;Tridus;2-(Diethylamino)ethyl 3-(naphthalen-1-yl)-2-((tetrahydrofuran-2-yl)methyl)propanoate;2-(Diethylamino)ethyl 3-(naphthalen-1-yl)-2-(tetrahydrofuran-2-ylmethyl)propanoate",
    "duplicated_cas_no": "860-36-6",
    "SMILES": "C(C(CC1CCCO1)C(OCCN(CC)CC)=O)C=2C3=C(C=CC2)C=CC=C3",
    "meta_data": {
        "InChI": "InChI=1S/C24H33NO3/c1-3-25(4-2)14-16-28-24(26)21(18-22-12-8-15-27-22)17-20-11-7-10-19-9-5-6-13-23(19)20/h5-7,9-11,13,21-22H,3-4,8,12,14-18H2,1-2H3",
        "InChIKey": null,
        "Canonical SMILES": "O=C(OCCN(CC)CC)C(CC1=CC=CC=2C=CC=CC21)CC3OCCC3",
        "Molecular Formula": "C<sub>24</sub>H<sub>33</sub>NO<sub>3</sub>",
        "Molecular Mass": "383.52",
        "Boiling Point": "190 °C"
    }
}