{
    "cas_no": "540-63-6",
    "key_name": "1,2-Ethanedithiol",
    "cn_name": "1,2-乙二硫醇;",
    "alternate_name": "1,2-Ethanedithiol;Dithioethylene glycol;Ethylene dimercaptan;<em>s</em>-Ethylene dimercaptan;Ethylene glycol, dithio-;<em>a</em>-Ethylene dimercaptan;Dithioglycol;1,2-Dimercaptoethane;Ethylenedithiol;Ethylene dithioglycol;1,2-Ethylenedithiol;2-Mercaptoethanethiol;NSC 60481;1,2-Dithiolethane;EDT;1,2-Dithioethane;Ethan-1,2-dithiol",
    "duplicated_cas_no": "",
    "SMILES": "C(CS)S",
    "meta_data": {
        "InChI": "InChI=1S/C2H6S2/c3-1-2-4/h3-4H,1-2H2",
        "InChIKey": null,
        "Canonical SMILES": "SCCS",
        "Molecular Formula": "C<sub>2</sub>H<sub>6</sub>S<sub>2</sub>",
        "Molecular Mass": "94.20",
        "Boiling Point": "146 °C @ Press: 760 Torr",
        "Melting Point": "-41.2 °C",
        "Density": "1.123 g/cm³ @ Temp: 23.5 °C"
    }
}