{
    "cas_no": "6962-92-1",
    "key_name": "1-Butanol, 4-chloro-, 1-acetate",
    "cn_name": "4-氯丁醇醋酸酯;4-氯丁基醋酸酯;",
    "alternate_name": "1-Butanol, 4-chloro-, 1-acetate;1-Butanol, 4-chloro-, acetate;4-Chlorobutyl acetate;δ-Chlorobutyl acetate;1-Chloro-4-acetoxybutane;1-Acetoxy-4-chlorobutane;NSC 53492;NSC 54074;Acetic acid 4-chlorobutyl ester",
    "duplicated_cas_no": "",
    "SMILES": "C(OC(C)=O)CCCCl",
    "meta_data": {
        "InChI": "InChI=1S/C6H11ClO2/c1-6(8)9-5-3-2-4-7/h2-5H2,1H3",
        "InChIKey": null,
        "Canonical SMILES": "O=C(OCCCCCl)C",
        "Molecular Formula": "C<sub>6</sub>H<sub>11</sub>ClO<sub>2</sub>",
        "Molecular Mass": "150.60",
        "Boiling Point": "87 °C @ Press: 17 Torr",
        "Density": "1.1024 g/cm³ @ Temp: 0 °C"
    }
}