{
    "cas_no": "5367-26-0",
    "key_name": "1-Chloro-3-methyl-2-nitrobenzene",
    "cn_name": "2-硝基-3-氯甲苯;",
    "alternate_name": "Benzene, 1-chloro-3-methyl-2-nitro-;Toluene, 3-chloro-2-nitro-;1-Chloro-3-methyl-2-nitrobenzene;2-Nitro-3-chlorotoluene;3-Chloro-2-nitrotoluene;2-Chloro-6-methyl-1-nitrobenzene;6-Methyl-2-chloro-1-nitrobenzene",
    "duplicated_cas_no": "",
    "SMILES": "N(=O)(=O)C1=C(C)C=CC=C1Cl",
    "meta_data": {
        "InChI": "InChI=1S/C7H6ClNO2/c1-5-3-2-4-6(8)7(5)9(10)11/h2-4H,1H3",
        "InChIKey": null,
        "Canonical SMILES": "O=N(=O)C=1C(Cl)=CC=CC1C",
        "Molecular Formula": "C<sub>7</sub>H<sub>6</sub>ClNO<sub>2</sub>",
        "Molecular Mass": "171.58",
        "Boiling Point": "107-108 °C @ Press: 9.5 Torr",
        "Melting Point": "22-23 °C"
    }
}