{
    "cas_no": "16752-77-5",
    "key_name": "Methomyl",
    "cn_name": "灭多威;1-(甲硫基)亚乙基氨甲基氨基甲酸酯;",
    "alternate_name": "Ethanimidothioic acid, <em>N</em>-[[(methylamino)carbonyl]oxy]-, methyl ester;IN 1179;Du Pont Insecticide 1179;Lannate;Methyl <em>N</em>-[(methylcarbamoyl)oxy]thioacetimidate;<em>S</em>-Methyl <em>N</em>-[(methylcarbamoyl)oxy]thioacetimidate;Methyl <em>O</em>-(methylcarbamyl)thiolacetohydroxamate;Methomyl;Du Pont 1179;Methyl <em>O</em>-(methylcarbamoyl)thiolacetohydroxamate;SD 14999;WL 18236;Mesomile;Nudrin;Methomyl SP;Lannate 90SP;Lannate L;Lan Bait;Mie Duo Wei;Dunet;Metomil;Lannate D;Nudrin D;Lannate 25;Nudrin 225;Lannate 20;Metomur;Lannate 20L;Lannate LV;MeSH ID: D008724",
    "duplicated_cas_no": "136511-07-4;136799-44-5;22224-93-7",
    "SMILES": "C(=NOC(NC)=O)(SC)C",
    "meta_data": {
        "InChI": "InChI=1S/C5H10N2O2S/c1-4(10-3)7-9-5(8)6-2/h1-3H3,(H,6,8)",
        "InChIKey": null,
        "Canonical SMILES": "O=C(ON=C(SC)C)NC",
        "Molecular Formula": "C<sub>5</sub>H<sub>10</sub>N<sub>2</sub>O<sub>2</sub>S",
        "Molecular Mass": "162.21",
        "Melting Point": "78-79 °C",
        "Density": "1.3 g/cm³"
    }
}