{
    "cas_no": "1483-67-6",
    "key_name": "2-Heptynoic acid",
    "cn_name": "2-庚炔酸;2-庚炔酸;",
    "alternate_name": "2-Heptynoic acid",
    "duplicated_cas_no": "",
    "SMILES": "C(#CC(O)=O)CCCC",
    "meta_data": {
        "InChI": "InChI=1S/C7H10O2/c1-2-3-4-5-6-7(8)9/h2-4H2,1H3,(H,8,9)",
        "InChIKey": null,
        "Canonical SMILES": "O=C(O)C#CCCCC",
        "Molecular Formula": "C<sub>7</sub>H<sub>10</sub>O<sub>2</sub>",
        "Molecular Mass": "126.15",
        "Boiling Point": "105-106 °C @ Press: 2.5 Torr",
        "Melting Point": "64 °C",
        "Density": "0.976 g/cm³ @ Temp: 21 °C"
    }
}