{
    "cas_no": "697-88-1",
    "key_name": "4-Bromo-2,6-dichloroaniline",
    "cn_name": "4-溴-2,6-二氯苯胺;",
    "alternate_name": "Benzenamine, 4-bromo-2,6-dichloro-;Aniline, 4-bromo-2,6-dichloro-;4-Bromo-2,6-dichlorobenzenamine;4-Bromo-2,6-dichloroaniline;2,6-Dichloro-4-bromoaniline;(4-Bromo-2,6-dichlorophenyl)amine",
    "duplicated_cas_no": "",
    "SMILES": "NC1=C(Cl)C=C(Br)C=C1Cl",
    "meta_data": {
        "InChI": "InChI=1S/C6H4BrCl2N/c7-3-1-4(8)6(10)5(9)2-3/h1-2H,10H2",
        "InChIKey": null,
        "Canonical SMILES": "ClC=1C=C(Br)C=C(Cl)C1N",
        "Molecular Formula": "C<sub>6</sub>H<sub>4</sub>BrCl<sub>2</sub>N",
        "Molecular Mass": "240.91",
        "Melting Point": "86-87 °C"
    }
}