{
    "cas_no": "2655-14-3",
    "key_name": "3,5-Xylyl methylcarbamate",
    "cn_name": "灭除威;二甲威;3，5-二甲苯基N-甲基氨基甲酸酯;",
    "alternate_name": "Phenol, 3,5-dimethyl-, 1-(<em>N</em>-methylcarbamate);Carbamic acid, methyl-, 3,5-xylyl ester;Phenol, 3,5-dimethyl-, methylcarbamate;3,5-Xylenol, methylcarbamate;DRC 3340;3,5-Dimethylphenyl <em>N</em>-methylcarbamate;Cosban;3,5-Xylyl <em>N</em>-methylcarbamate;3,5-Xylyl methylcarbamate;Macbal;3,5-Dimethylphenyl methylcarbamate;XMC (pesticide);XMC;S 1041;NSC 35375;Miechuwei",
    "duplicated_cas_no": "145846-51-1",
    "SMILES": "O(C(NC)=O)C1=CC(C)=CC(C)=C1",
    "meta_data": {
        "InChI": "InChI=1S/C10H13NO2/c1-7-4-8(2)6-9(5-7)13-10(12)11-3/h4-6H,1-3H3,(H,11,12)",
        "InChIKey": null,
        "Canonical SMILES": "O=C(OC=1C=C(C=C(C1)C)C)NC",
        "Molecular Formula": "C<sub>10</sub>H<sub>13</sub>NO<sub>2</sub>",
        "Molecular Mass": "179.22",
        "Melting Point": "99 °C",
        "Density": "0.54 g/cm³"
    }
}