{
    "cas_no": "112794-29-3",
    "key_name": "1,2,3,4-Tetrahydro-3-isoquinolinecarboxamide",
    "cn_name": null,
    "alternate_name": "3-Isoquinolinecarboxamide, 1,2,3,4-tetrahydro-;1,2,3,4-Tetrahydro-3-isoquinolinecarboxamide;1,2,3,4-Tetrahydro-isoquinoline-3-carboxylic acid amide",
    "duplicated_cas_no": "",
    "SMILES": "C(N)(=O)C1CC=2C(CN1)=CC=CC2",
    "meta_data": {
        "InChI": "InChI=1S/C10H12N2O/c11-10(13)9-5-7-3-1-2-4-8(7)6-12-9/h1-4,9,12H,5-6H2,(H2,11,13)",
        "InChIKey": null,
        "Canonical SMILES": "O=C(N)C1NCC=2C=CC=CC2C1",
        "Molecular Formula": "C<sub>10</sub>H<sub>12</sub>N<sub>2</sub>O",
        "Molecular Mass": "176.22",
        "Melting Point": "162-163 °C"
    }
}