{
    "cas_no": "634-97-9",
    "key_name": "Pyrrole-2-carboxylic acid",
    "cn_name": "吡咯-2-羧酸;2-吡咯羧酸;",
    "alternate_name": "1<em>H</em>-Pyrrole-2-carboxylic acid;Pyrrole-2-carboxylic acid;Minaline;Minalin;2-Minaline;2-Mialine;NSC 48130",
    "duplicated_cas_no": "",
    "SMILES": "C(O)(=O)C1=CC=CN1",
    "meta_data": {
        "InChI": "InChI=1S/C5H5NO2/c7-5(8)4-2-1-3-6-4/h1-3,6H,(H,7,8)",
        "InChIKey": null,
        "Canonical SMILES": "O=C(O)C1=CC=CN1",
        "Molecular Formula": "C<sub>5</sub>H<sub>5</sub>NO<sub>2</sub>",
        "Molecular Mass": "111.10",
        "Melting Point": "206 °C (decomp)"
    }
}