{
    "cas_no": "10210-32-9",
    "key_name": "2-Acetylanthracene",
    "cn_name": "2-乙酰基蒽;",
    "alternate_name": "Ethanone, 1-(2-anthracenyl)-;Ketone, 2-anthryl methyl;1-(2-Anthracenyl)ethanone;2-Acetylanthracene;2-Anthryl methyl ketone",
    "duplicated_cas_no": "",
    "SMILES": "C(C)(=O)C1=CC2=C(C=C3C(=C2)C=CC=C3)C=C1",
    "meta_data": {
        "InChI": "InChI=1S/C16H12O/c1-11(17)12-6-7-15-9-13-4-2-3-5-14(13)10-16(15)8-12/h2-10H,1H3",
        "InChIKey": null,
        "Canonical SMILES": "O=C(C=1C=CC2=CC=3C=CC=CC3C=C2C1)C",
        "Molecular Formula": "C<sub>16</sub>H<sub>12</sub>O",
        "Molecular Mass": "220.27",
        "Melting Point": "183-185 °C"
    }
}