{
    "cas_no": "42417-65-2",
    "key_name": "<em>N</em>-Methyl-<em>N</em>-[(phenylmethoxy)carbonyl]-<span class=\"text-smallcaps\">L</span>-valine",
    "cn_name": "N-苄氧羰基-N-甲基-L-缬氨酸;",
    "alternate_name": "<span class=\"text-smallcaps\">L</span>-Valine, <em>N</em>-methyl-<em>N</em>-[(phenylmethoxy)carbonyl]-;<em>N</em>-Methyl-<em>N</em>-[(phenylmethoxy)carbonyl]-<span class=\"text-smallcaps\">L</span>-valine;<em>N</em>-(Benzyloxycarbonyl)-<em>N</em>-methyl-<span class=\"text-smallcaps\">L</span>-valine;<em>N</em>-(Benzyloxycarbonyl)-<em>N</em>-methylvaline;(<em>S</em>)-<em>N</em>-(Benzyloxycarbonyl)-<em>N</em>-methylvaline;<em>N</em>-Cbz-<em>N</em>-methyl-<span class=\"text-smallcaps\">L</span>-valine",
    "duplicated_cas_no": "",
    "SMILES": "[C@H](N(C(OCC1=CC=CC=C1)=O)C)([C@H](C)C)C(O)=O",
    "meta_data": {
        "InChI": "InChI=1S/C14H19NO4/c1-10(2)12(13(16)17)15(3)14(18)19-9-11-7-5-4-6-8-11/h4-8,10,12H,9H2,1-3H3,(H,16,17)/t12-/m0/s1",
        "InChIKey": null,
        "Canonical SMILES": "O=C(O)C(N(C(=O)OCC=1C=CC=CC1)C)C(C)C",
        "Molecular Formula": "C<sub>14</sub>H<sub>19</sub>NO<sub>4</sub>",
        "Molecular Mass": "265.30",
        "Melting Point": "68.5-69 °C"
    }
}