{
    "cas_no": "2150-02-9",
    "key_name": "2-Mercaptoethyl ether",
    "cn_name": "双(2-巯基乙基)醚;2-巯基乙醚;2,2-氧二乙硫醇;",
    "alternate_name": "Ethanethiol, 2,2′-oxybis-;Ethanethiol, 2,2′-oxydi-;2,2′-Oxybis[ethanethiol];Bis(2-mercaptoethyl) ether;Dithiodiglycol;Ethyl ether dimercaptan;β,β′-Dimercaptodiethyl ether;2,2′-Dimercaptodiethyl ether;3-Oxapentane-1,5-dithiol;β-Mercaptoethyl ether;Bis(mercaptoethyl) ether;2,2′-Oxydi-1-ethanethiol;2-Mercaptoethyl ether;2,2′-Oxydiethanethiol;1,5-Dimercapto-3-oxapentane;NSC 51020;NSC 6751;2-(2-Sulfanylethoxy)ethane-1-thiol;2-(2-Sulfanylethoxy)ethyl hydrosulfide;2-(2-Sulfanylethoxy)ethanethiol;Di(2-mercaptoethyl) ether",
    "duplicated_cas_no": "",
    "SMILES": "O(CCS)CCS",
    "meta_data": {
        "InChI": "InChI=1S/C4H10OS2/c6-3-1-5-2-4-7/h6-7H,1-4H2",
        "InChIKey": null,
        "Canonical SMILES": "SCCOCCS",
        "Molecular Formula": "C<sub>4</sub>H<sub>10</sub>OS<sub>2</sub>",
        "Molecular Mass": "138.25",
        "Boiling Point": "217 °C",
        "Density": "1.127 g/cm³ @ Temp: 20 °C"
    }
}