{
    "cas_no": "18531-99-2",
    "key_name": "(-)-Binol",
    "cn_name": null,
    "alternate_name": "[1,1′-Binaphthalene]-2,2′-diol, (1<em>S</em>)-;[1,1′-Binaphthalene]-2,2′-diol, (<em>S</em>)-(-)-;[1,1′-Binaphthalene]-2,2′-diol, (<em>S</em>)-;(1<em>S</em>)-[1,1′-Binaphthalene]-2,2′-diol;(<em>S</em>)-2,2′-Dihydroxy-1,1′-binaphthyl;(-)-1,1′-Bi-2-naphthol;(<em>S</em>)-(-)-Bi-2-naphthol;(-)-2,2′-Dihydroxy-1,1′-binaphthyl;(-)-Bi-β-naphthol;(-)-2,2′-Dihydroxy-1,1′-binaphthalene;(<em>S</em>)-1,1′-Bi-2-naphthol;(<em>S</em>)-(-)-[1,1′-Binaphthalene]-2,2′-diol;(<em>S</em>)-[1,1′-Binaphthalene]-2,2′-diol;(<em>S</em>)-(-)-2,2′-Dihydroxy-1,1′-binaphthyl;(<em>S</em>)-(-)-1,1′-Bi-2-naphthol;(-)-2,2′-Dihydroxy-1,1′-dinaphthyl;(-)-<em>S</em>-1,1′-Binaphthyl-2,2′-diol;(<em>S</em>)-BINOL;(-)-1,1′-Binaphthyl-2,2′-diol;(<em>S</em>)-(-)-2,2′-Dihydroxy-1,1′-binaphthalene;(-)-Binol;(<em>S</em>)-1,1′-Binaphthyl-2,2′-diol;(-)-(1<em>S</em>)-[1,1′-Binaphthalene]-2,2′-diol;(<em>S</em>)-1,1′-Bis-2-naphthol;(<em>S</em>)-2,2′-Dihydroxy-1,1′-binaphthalene;(<em>S</em>)-1,1′-Binaphthol;(<em>S</em>)-1,1′-Bi-2,2′-naphthol;(<em>S</em>)-(-)-BINOL;(-)-1,1′-Bis(2-naphthol);(-)-2,2′-Binaphthol;(<em>S</em>)-Binaphthol;<em>S</em>-(-)-Binaphthol;(<em>S</em>)-Binaphth-2-ol;(-)-2,2′-Dihydroxydinaphthyl",
    "duplicated_cas_no": "134240-86-1;2911607-20-8",
    "SMILES": "OC1=C(C2=C(C=C1)C=CC=C2)C=3C4=C(C=CC3O)C=CC=C4",
    "meta_data": {
        "InChI": "InChI=1S/C20H14O2/c21-17-11-9-13-5-1-3-7-15(13)19(17)20-16-8-4-2-6-14(16)10-12-18(20)22/h1-12,21-22H",
        "InChIKey": null,
        "Canonical SMILES": "OC=1C=CC=2C=CC=CC2C1C3=C(O)C=CC=4C=CC=CC43",
        "Molecular Formula": "C<sub>20</sub>H<sub>14</sub>O<sub>2</sub>",
        "Molecular Mass": "286.32",
        "Melting Point": "211-212 °C"
    }
}