{
    "cas_no": "75-84-3",
    "key_name": "Neopentyl alcohol",
    "cn_name": "2,2-二甲基丙醇;新戊醇;2,2-二甲基-1-丙醇;",
    "alternate_name": "1-Propanol, 2,2-dimethyl-;2,2-Dimethyl-1-propanol;<em>tert</em>-Butylcarbinol;Neoamyl alcohol;Neopentanol;Neopentyl alcohol;2,2-Dimethylpropyl alcohol;α,α-Dimethylpropanol;2,2,2-Trimethylethanol",
    "duplicated_cas_no": "",
    "SMILES": "C(CO)(C)(C)C",
    "meta_data": {
        "InChI": "InChI=1S/C5H12O/c1-5(2,3)4-6/h6H,4H2,1-3H3",
        "InChIKey": null,
        "Canonical SMILES": "OCC(C)(C)C",
        "Molecular Formula": "C<sub>5</sub>H<sub>12</sub>O",
        "Molecular Mass": "88.15",
        "Boiling Point": "114 °C",
        "Melting Point": "53 °C",
        "Density": "0.812 g/cm³ @ Temp: 20 °C"
    }
}