{
    "cas_no": "187227-45-8",
    "key_name": "Ro 64-0802",
    "cn_name": null,
    "alternate_name": "1-Cyclohexene-1-carboxylic acid, 4-(acetylamino)-5-amino-3-(1-ethylpropoxy)-, (3<em>R</em>,4<em>R</em>,5<em>S</em>)-;1-Cyclohexene-1-carboxylic acid, 4-(acetylamino)-5-amino-3-(1-ethylpropoxy)-, [3<em>R</em>-(3α,4β,5α)]-;(3<em>R</em>,4<em>R</em>,5<em>S</em>)-4-(Acetylamino)-5-amino-3-(1-ethylpropoxy)-1-cyclohexene-1-carboxylic acid;GS 4071;Ro 64-0802;Oseltamivir acid",
    "duplicated_cas_no": "",
    "SMILES": "O(C(CC)CC)[C@H]1[C@H](NC(C)=O)[C@@H](N)CC(C(O)=O)=C1",
    "meta_data": {
        "InChI": "InChI=1S/C14H24N2O4/c1-4-10(5-2)20-12-7-9(14(18)19)6-11(15)13(12)16-8(3)17/h7,10-13H,4-6,15H2,1-3H3,(H,16,17)(H,18,19)/t11-,12+,13+/m0/s1",
        "InChIKey": null,
        "Canonical SMILES": "O=C(O)C1=CC(OC(CC)CC)C(NC(=O)C)C(N)C1",
        "Molecular Formula": "C<sub>14</sub>H<sub>24</sub>N<sub>2</sub>O<sub>4</sub>",
        "Molecular Mass": "284.35",
        "Melting Point": "185-187 °C"
    }
}