{
    "cas_no": "121-57-3",
    "key_name": "Sulfanilic acid",
    "cn_name": "对氨基苯磺酸;",
    "alternate_name": "Benzenesulfonic acid, 4-amino-;Sulfanilic acid;4-Aminobenzenesulfonic acid;<em>p</em>-Aminobenzenesulfonic acid;Aniline-<em>p</em>-sulfonic acid;Aniline-4-sulfonic acid;Sulphanilic acid;1-Aminobenzene-4-sulfonic acid;<em>p</em>-Aminophenylsulfonic acid;<em>p</em>-Sulfoaniline;4-Aminophenylsulfonic acid;4-Sulfoaniline;NSC 7170;4-Aminobenzene-1-sulfonic acid",
    "duplicated_cas_no": "856062-06-1",
    "SMILES": "S(=O)(=O)(O)C1=CC=C(N)C=C1",
    "meta_data": {
        "InChI": "InChI=1S/C6H7NO3S/c7-5-1-3-6(4-2-5)11(8,9)10/h1-4H,7H2,(H,8,9,10)",
        "InChIKey": null,
        "Canonical SMILES": "O=S(=O)(O)C1=CC=C(N)C=C1",
        "Molecular Formula": "C<sub>6</sub>H<sub>7</sub>NO<sub>3</sub>S",
        "Molecular Mass": "173.19",
        "Boiling Point": "279 °C",
        "Melting Point": "288 °C",
        "Density": "1.485 g/cm³ @ Temp: 25 °C"
    }
}