{
    "cas_no": "613-76-3",
    "key_name": "2,7-Naphthalenediamine",
    "cn_name": "2,7-二氨基萘;2,7-萘二胺;",
    "alternate_name": "2,7-Naphthalenediamine;2,7-Naphthylenediamine;2,7-Diaminonaphthalene;NSC 356142",
    "duplicated_cas_no": "",
    "SMILES": "NC1=CC2=C(C=CC(N)=C2)C=C1",
    "meta_data": {
        "InChI": "InChI=1S/C10H10N2/c11-9-3-1-7-2-4-10(12)6-8(7)5-9/h1-6H,11-12H2",
        "InChIKey": null,
        "Canonical SMILES": "NC=1C=CC2=CC=C(N)C=C2C1",
        "Molecular Formula": "C<sub>10</sub>H<sub>10</sub>N<sub>2</sub>",
        "Molecular Mass": "158.20",
        "Melting Point": "158 °C"
    }
}