{
    "cas_no": "14062-34-1",
    "key_name": "<em>m</em>-Aminobenzhydrazide",
    "cn_name": null,
    "alternate_name": "Benzoic acid, 3-amino-, hydrazide;Benzoic acid, <em>m</em>-amino-, hydrazide;<em>m</em>-Aminobenzhydrazide;<em>m</em>-Aminobenzoic hydrazide;<em>m</em>-Aminobenzoic acid hydrazide;3-Aminobenzoic acid hydrazide;3-Aminobenzohydrazide;3-Aminobenzhydrazide;NSC 28878;3-Aminobenzoylhydrazide;INHd 23;<em>m</em>-Aminobenzohydrazide",
    "duplicated_cas_no": "",
    "SMILES": "C(NN)(=O)C1=CC(N)=CC=C1",
    "meta_data": {
        "InChI": "InChI=1S/C7H9N3O/c8-6-3-1-2-5(4-6)7(11)10-9/h1-4H,8-9H2,(H,10,11)",
        "InChIKey": null,
        "Canonical SMILES": "O=C(NN)C=1C=CC=C(N)C1",
        "Molecular Formula": "C<sub>7</sub>H<sub>9</sub>N<sub>3</sub>O",
        "Molecular Mass": "151.17",
        "Melting Point": "78 °C"
    }
}