{
    "cas_no": "71-58-9",
    "key_name": "Medroxyprogesterone acetate",
    "cn_name": "安宫黄体酮;甲羟孕酮醋酸酯;",
    "alternate_name": "Pregn-4-ene-3,20-dione, 17-(acetyloxy)-6-methyl-, (6α)-;Pregn-4-ene-3,20-dione, 17-hydroxy-6α-methyl-, acetate;Progesterone, 17-hydroxy-6α-methyl-, acetate;(6α)-17-(Acetyloxy)-6-methylpregn-4-ene-3,20-dione;17α-Acetoxy-6α-methylpregn-4-ene-3,20-dione;17α-Acetoxy-6α-methylprogesterone;Depo-Provera;Farlutin;17α-Hydroxy-6α-methylpregn-4-ene-3,20-dione acetate;17α-Hydroxy-6α-methylprogesterone acetate;MAP;Medroxyprogesterone acetate;6α-Methyl-17α-acetoxy-Δ<sup>4</sup>-pregnene-3,20-dione;6α-Methyl-17α-acetoxypregn-4-ene-3,20-dione;6α-Methyl-17α-hydroxyprogesterone acetate;MPA;Oragest;Perlutex;Provera;Repromix;U 8839;Depomedroxyprogesterone acetate;6α-Methyl-17-acetoxyprogesterone;Veramix;Progevera;Lutopolar;Lutoral;Metigestrona;Proverone;Sirprogen;Gestapuran;Prodasone;Progestalfa;6α-Methyl-17α-Hydroxy-4-pregnene-3,20-dione acetate;Depot-medroxyprogesterone acetate;DMPA;Medroxyprogesterone 17-acetate;Repromap;17α-Hydroxy-6α-methyl-4-pregnene-3,20-dione 17-acetate;Clinovir;Depo-progestin;Farlutal;MAP (steroid);Cycrin;Hysron;Medroprogesterone acetate;Indivina;CBP 1011;Colirest;Hematrol;Perlutex Leo;Amen;Depo-Prodasone;Meprate;Asconale;Med-Pro;Progeston;MPA Gyn 5;Ralovera;Aragest 5;Clinofem;Novo-Medrone;Aragest;Curretab;Sodelut G;Depo-Clinovir;Nadigest;Nidaxin;G-Farlutal;Depo-promone;NSC 21171;NSC 26386;Depo-Ralovera;Progespon;6α-Methyl-17<em>R</em>-hydroxyprogesterone acetate;Depo-SubQ Provera 104;Prempack C;MeSH ID: D017258",
    "duplicated_cas_no": "",
    "SMILES": "O(C(C)=O)[C@@]1(C(C)=O)[C@]2(C)[C@@](CC1)([C@]3([C@](CC2)([C@]4(C)C([C@@H](C)C3)=CC(=O)CC4)[H])[H])[H]",
    "meta_data": {
        "InChI": "InChI=1S/C24H34O4/c1-14-12-18-19(22(4)9-6-17(27)13-21(14)22)7-10-23(5)20(18)8-11-24(23,15(2)25)28-16(3)26/h13-14,18-20H,6-12H2,1-5H3/t14-,18+,19-,20-,22+,23-,24-/m0/s1",
        "InChIKey": null,
        "Canonical SMILES": "O=C(OC1(C(=O)C)CCC2C3CC(C4=CC(=O)CCC4(C)C3CCC21C)C)C",
        "Molecular Formula": "C<sub>24</sub>H<sub>34</sub>O<sub>4</sub>",
        "Molecular Mass": "386.52",
        "Melting Point": "207-209 °C"
    }
}