{
    "cas_no": "7217-59-6",
    "key_name": "2-Methoxybenzenethiol",
    "cn_name": null,
    "alternate_name": "Benzenethiol, 2-methoxy-;Benzenethiol, <em>o</em>-methoxy-;2-Methoxybenzenethiol;<em>o</em>-Methoxybenzenethiol;2-Methoxythiophenol;2-Mercaptoanisole;<em>o</em>-Methoxythiophenol;2-(Methoxy)benzothiol;2-Methoxyphenylthiol;2-Methoxybenzene-1-thiol",
    "duplicated_cas_no": "",
    "SMILES": "O(C)C1=C(S)C=CC=C1",
    "meta_data": {
        "InChI": "InChI=1S/C7H8OS/c1-8-6-4-2-3-5-7(6)9/h2-5,9H,1H3",
        "InChIKey": null,
        "Canonical SMILES": "SC=1C=CC=CC1OC",
        "Molecular Formula": "C<sub>7</sub>H<sub>8</sub>OS",
        "Molecular Mass": "140.20",
        "Boiling Point": "99 °C @ Press: 8 Torr",
        "Melting Point": "306.7-313.7 °C (decomp)"
    }
}