{
    "cas_no": "1501-82-2",
    "key_name": "Cyclododecene",
    "cn_name": "环十二烯;环十二碳一烯;",
    "alternate_name": "Cyclododecene;1-Cyclododecene",
    "duplicated_cas_no": "",
    "SMILES": "C1CCCCCC=CCCCC1",
    "meta_data": {
        "InChI": "InChI=1S/C12H22/c1-2-4-6-8-10-12-11-9-7-5-3-1/h1-2H,3-12H2",
        "InChIKey": null,
        "Canonical SMILES": "C1=CCCCCCCCCCC1",
        "Molecular Formula": "C<sub>12</sub>H<sub>22</sub>",
        "Molecular Mass": "166.30",
        "Boiling Point": "99 °C @ Press: 5 Torr",
        "Melting Point": "99-99.5 °C",
        "Density": "0.8776 g/cm³ @ Temp: 20 °C"
    }
}