{
    "cas_no": "507-09-5",
    "key_name": "Thioacetic acid",
    "cn_name": "硫代乙酸;",
    "alternate_name": "Ethanethioic acid;Acetic acid, thio-;Ethanethiolic acid;Thiacetic acid;Thioacetic acid;Thiolacetic acid;Methanecarbothiolic acid;Thionoacetic acid;Acetyl mercaptan;Monothioacetic acid",
    "duplicated_cas_no": "196320-91-9;531524-45-5;531524-48-8;1356190-88-9",
    "SMILES": "C(C)(=O)S",
    "meta_data": {
        "InChI": "InChI=1S/C2H4OS/c1-2(3)4/h1H3,(H,3,4)",
        "InChIKey": null,
        "Canonical SMILES": "O=C(S)C",
        "Molecular Formula": "C<sub>2</sub>H<sub>4</sub>OS",
        "Molecular Mass": "76.12",
        "Boiling Point": "93 °C",
        "Melting Point": "&lt;-17 °C",
        "Density": "1.074 g/cm³"
    }
}