{
    "cas_no": "14096-51-6",
    "key_name": "Dichloro(ethylenediamine)platinum(II)",
    "cn_name": "乙二胺氯化铂(II);",
    "alternate_name": "Platinum, dichloro(1,2-ethanediamine-κ<em>N</em><sup>1</sup>,κ<em>N</em><sup>2</sup>)-, (<em>SP</em>-4-2)-;Platinum, dichloro(ethylenediamine)-;Platinum, dichloro(1,2-ethanediamine-<em>N</em>,<em>N</em>′)-, (<em>SP</em>-4-2)-;Platinum, dichloro(1,2-ethanediamine-κ<em>N</em>,κ<em>N</em>′)-, (<em>SP</em>-4-2)-;(<em>SP</em>-4-2)-Dichloro(1,2-ethanediamine-κ<em>N</em><sup>1</sup>,κ<em>N</em><sup>2</sup>)platinum;Dichloro(ethylenediamine)platinum(II);Platinum ethylenediamine dichloride;<em>cis</em>-Dichloro ethylenediammine platinum;<em>cis</em>-Dichloro(ethylenediamine)platinum;Dichloro(1,2-diaminoethane)platinum;NSC 125181;Dichloro(ethane-1,2-diamine)platinum(II);Enplatin;CPA 3;Dichloro(1,2-ethanediamine)platinum",
    "duplicated_cas_no": "",
    "SMILES": "[Cl-][Pt+2]1([Cl-])[NH2]CC[NH2]1",
    "meta_data": {
        "InChI": "InChI=1S/C2H8N2.2ClH.Pt/c3-1-2-4;;;/h1-4H2;2*1H;/q;;;+2/p-2",
        "InChIKey": null,
        "Canonical SMILES": "[Cl-][Pt+2]1([Cl-])[NH2]CC[NH2]1",
        "Molecular Formula": "C<sub>2</sub>H<sub>8</sub>Cl<sub>2</sub>N<sub>2</sub>Pt",
        "Molecular Mass": "",
        "Melting Point": "232 °C"
    }
}