{
    "cas_no": "763-29-1",
    "key_name": "2-Methyl-1-pentene",
    "cn_name": "2-甲基-1-戊烯;",
    "alternate_name": "1-Pentene, 2-methyl-;2-Methyl-1-pentene;4-Methyl-4-pentene;NSC 73908",
    "duplicated_cas_no": "2056117-90-7",
    "SMILES": "C(C(C)=C)CC",
    "meta_data": {
        "InChI": "InChI=1S/C6H12/c1-4-5-6(2)3/h2,4-5H2,1,3H3",
        "InChIKey": null,
        "Canonical SMILES": "C=C(C)CCC",
        "Molecular Formula": "C<sub>6</sub>H<sub>12</sub>",
        "Molecular Mass": "84.16",
        "Boiling Point": "62.1 °C",
        "Melting Point": "-135.7 °C",
        "Density": "0.6831 g/cm³ @ Temp: 20 °C"
    }
}