{
    "cas_no": "71637-34-8",
    "key_name": "3-Thiophenemethanol",
    "cn_name": "3-噻吩甲醇;",
    "alternate_name": "3-Thiophenemethanol;3-(Hydroxymethyl)thiophene;3-Thienylcarbinol;3-Thienylmethanol;Thiophene-3-ylmethanol;Thiophen-3-ylmethanol;1-(Thiophen-3-yl)methanol",
    "duplicated_cas_no": "",
    "SMILES": "C(O)C=1C=CSC1",
    "meta_data": {
        "InChI": "InChI=1S/C5H6OS/c6-3-5-1-2-7-4-5/h1-2,4,6H,3H2",
        "InChIKey": null,
        "Canonical SMILES": "OCC1=CSC=C1",
        "Molecular Formula": "C<sub>5</sub>H<sub>6</sub>OS",
        "Molecular Mass": "114.17",
        "Boiling Point": "106-115 °C @ Press: 20 Torr"
    }
}