{
    "cas_no": "25374-10-1",
    "key_name": "1-Chloro-<em>N</em>,<em>N</em>,<em>N</em>′,<em>N</em>′-tetramethyl-1-phenylsilanediamine",
    "cn_name": null,
    "alternate_name": "Silanediamine, 1-chloro-<em>N</em>,<em>N</em>,<em>N</em>′,<em>N</em>′-tetramethyl-1-phenyl-;1-Chloro-<em>N</em>,<em>N</em>,<em>N</em>′,<em>N</em>′-tetramethyl-1-phenylsilanediamine;Chlorobis(dimethylamino)phenylsilane;[Chloro(dimethylamino)phenylsilyl]dimethylamine",
    "duplicated_cas_no": "",
    "SMILES": "[Si](N(C)C)(N(C)C)(Cl)C1=CC=CC=C1",
    "meta_data": {
        "InChI": "InChI=1S/C10H17ClN2Si/c1-12(2)14(11,13(3)4)10-8-6-5-7-9-10/h5-9H,1-4H3",
        "InChIKey": null,
        "Canonical SMILES": "Cl[Si](C=1C=CC=CC1)(N(C)C)N(C)C",
        "Molecular Formula": "C<sub>10</sub>H<sub>17</sub>ClN<sub>2</sub>Si",
        "Molecular Mass": "228.79",
        "Boiling Point": "127-129 °C @ Press: 23 Torr"
    }
}