{
    "cas_no": "110-56-5",
    "key_name": "1,4-Dichlorobutane",
    "cn_name": "1,4-二氯丁烷;",
    "alternate_name": "Butane, 1,4-dichloro-;1,4-Dichlorobutane;NSC 6288;4-Chlorobutyl chloride",
    "duplicated_cas_no": "",
    "SMILES": "C(CCCl)CCl",
    "meta_data": {
        "InChI": "InChI=1S/C4H8Cl2/c5-3-1-2-4-6/h1-4H2",
        "InChIKey": null,
        "Canonical SMILES": "ClCCCCCl",
        "Molecular Formula": "C<sub>4</sub>H<sub>8</sub>Cl<sub>2</sub>",
        "Molecular Mass": "127.01",
        "Boiling Point": "161 °C",
        "Melting Point": "-37.3 °C",
        "Density": "1.1598 g/cm³ @ Temp: 20 °C"
    }
}