{
    "cas_no": "13080-90-5",
    "key_name": "5-Norbornen-2-ol",
    "cn_name": "5-降冰片烯-2-甲醇;",
    "alternate_name": "Bicyclo[2.2.1]hept-5-en-2-ol;5-Norbornen-2-ol;5-Hydroxybicyclo[2.2.1]hept-2-ene;NSC 50234",
    "duplicated_cas_no": "",
    "SMILES": "OC1C2CC(C1)C=C2",
    "meta_data": {
        "InChI": "InChI=1S/C7H10O/c8-7-4-5-1-2-6(7)3-5/h1-2,5-8H,3-4H2",
        "InChIKey": null,
        "Canonical SMILES": "OC1CC2C=CC1C2",
        "Molecular Formula": "C<sub>7</sub>H<sub>10</sub>O",
        "Molecular Mass": "110.15",
        "Melting Point": "105 °C"
    }
}