{
    "cas_no": "111-34-2",
    "key_name": "Butyl vinyl ether",
    "cn_name": "乙烯基正丁醚;",
    "alternate_name": "Butane, 1-(ethenyloxy)-;Ether, butyl vinyl;1-(Ethenyloxy)butane;<em>n</em>-Butyl vinyl ether;BVE;Vinyl <em>n</em>-butyl ether;Vinyl butyl ether;Butoxyethene;Butoxyethylene;1-Butoxyethene;Butyl vinyl ether;1-(Vinyloxy)butane;NSC 8264;NBVE",
    "duplicated_cas_no": "",
    "SMILES": "C(CCC)OC=C",
    "meta_data": {
        "InChI": "InChI=1S/C6H12O/c1-3-5-6-7-4-2/h4H,2-3,5-6H2,1H3",
        "InChIKey": null,
        "Canonical SMILES": "O(C=C)CCCC",
        "Molecular Formula": "C<sub>6</sub>H<sub>12</sub>O",
        "Molecular Mass": "100.16",
        "Boiling Point": "94 °C",
        "Melting Point": "-92 °C",
        "Density": "0.7888 g/cm³ @ Temp: 20 °C"
    }
}