{
    "cas_no": "94148-67-1",
    "key_name": "4,4′-[[1,1′-Biphenyl]-2,5-diylbis(oxy)]bis[benzenamine]",
    "cn_name": "1,4-二(4-氨基苯氧基)-2-苯基苯;",
    "alternate_name": "Benzenamine, 4,4′-[[1,1′-biphenyl]-2,5-diylbis(oxy)]bis-;4,4′-[[1,1′-Biphenyl]-2,5-diylbis(oxy)]bis[benzenamine];1,4-Bis(4-aminophenoxy)-2-phenylbenzene;4,4′-[(2-Phenyl-<em>p</em>-phenylene)dioxy]dianiline;2,5-Bis(4-aminophenoxy)biphenyl",
    "duplicated_cas_no": "",
    "SMILES": "O(C1=C(C=C(OC2=CC=C(N)C=C2)C=C1)C3=CC=CC=C3)C4=CC=C(N)C=C4",
    "meta_data": {
        "InChI": "InChI=1S/C24H20N2O2/c25-18-6-10-20(11-7-18)27-22-14-15-24(28-21-12-8-19(26)9-13-21)23(16-22)17-4-2-1-3-5-17/h1-16H,25-26H2",
        "InChIKey": null,
        "Canonical SMILES": "O(C1=CC=C(N)C=C1)C=2C=CC(OC3=CC=C(N)C=C3)=C(C2)C=4C=CC=CC4",
        "Molecular Formula": "C<sub>24</sub>H<sub>20</sub>N<sub>2</sub>O<sub>2</sub>",
        "Molecular Mass": "368.43",
        "Melting Point": "67-70 °C"
    }
}