{
    "cas_no": "1593-77-7",
    "key_name": "Dodemorph",
    "cn_name": "4-环十二烷基-2,6-二甲基吗啉;",
    "alternate_name": "Morpholine, 4-cyclododecyl-2,6-dimethyl-;Cyclododecane, morpholine deriv.;4-Cyclododecyl-2,6-dimethylmorpholine;Dodemorph;Meltatox;Doazine",
    "duplicated_cas_no": "12679-61-7",
    "SMILES": "CC1CN(CC(C)O1)C2CCCCCCCCCCC2",
    "meta_data": {
        "InChI": "InChI=1S/C18H35NO/c1-16-14-19(15-17(2)20-16)18-12-10-8-6-4-3-5-7-9-11-13-18/h16-18H,3-15H2,1-2H3",
        "InChIKey": null,
        "Canonical SMILES": "O1C(C)CN(CC1C)C2CCCCCCCCCCC2",
        "Molecular Formula": "C<sub>18</sub>H<sub>35</sub>NO",
        "Molecular Mass": "281.48",
        "Boiling Point": "190 °C",
        "Melting Point": "71 °C"
    }
}