{
    "cas_no": "2137-18-0",
    "key_name": "Gestonorone",
    "cn_name": "孕诺酮;",
    "alternate_name": "19-Norpregn-4-ene-3,20-dione, 17-hydroxy-;17-Hydroxy-19-norpregn-4-ene-3,20-dione;Gestonorone;17α-Hydroxy-19-norpregn-4-ene-3,20-dione;TX 045;17α-Hydroxy-19-norprogesterone;Gestronol;17α-Hydroxy-19-norpregn-4-en-3,20-dione;19-Norpregn-4-en-3,20-dione-17α-ol;17α-17-Acetyl-17-hydroxyestr-4-en-3-one;17β-Acetyl-17α-hydroxyestr-4-en-3-one",
    "duplicated_cas_no": "",
    "SMILES": "C[C@@]12[C@]([C@]3([C@@]([C@@]4(C(CC3)=CC(=O)CC4)[H])(CC1)[H])[H])(CC[C@@]2(C(C)=O)O)[H]",
    "meta_data": {
        "InChI": "InChI=1S/C20H28O3/c1-12(21)20(23)10-8-18-17-5-3-13-11-14(22)4-6-15(13)16(17)7-9-19(18,20)2/h11,15-18,23H,3-10H2,1-2H3/t15-,16+,17+,18-,19-,20-/m0/s1",
        "InChIKey": null,
        "Canonical SMILES": "O=C1C=C2CCC3C(CCC4(C)C3CCC4(O)C(=O)C)C2CC1",
        "Molecular Formula": "C<sub>20</sub>H<sub>28</sub>O<sub>3</sub>",
        "Molecular Mass": "316.43",
        "Melting Point": "204-206 °C"
    }
}