{
    "cas_no": "5160-02-1",
    "key_name": "C.I. Pigment Red 53:1",
    "cn_name": "颜料红53:1;",
    "alternate_name": "Benzenesulfonic acid, 5-chloro-2-[2-(2-hydroxy-1-naphthalenyl)diazenyl]-4-methyl-, barium salt (2:1);C.I. Pigment Red 53, barium salt (2:1);Benzenesulfonic acid, 5-chloro-2-[(2-hydroxy-1-naphthalenyl)azo]-4-methyl-, barium salt (2:1);C.I. Pigment Red 53, Ba salt;1860 Red;Bronze Scarlet CA;Bronze Scarlet CBA;Bronze Scarlet CTA;Eljon Lake Red C;Lake Red C 18287;Lake Red C 21245;Lake Red C 27200;Lake Red C 27217;Lake Red C 27218;Latexol Scarlet R;Pigment Lake Red BFC;D and C Red No. 9;Lake Red CBA;Lake Red C-RLC 232;Pigment Lake Red LC;Lake Red Toner LCLL;Lake Red ZhB;Pigment Red 53:1;Astro Orange;Atomic Red;Red No. 204;Carnation Red;Desert Red;C.I. Pigment Red 53:1;Red ZhB;Lake Red GB;Red Lake C;Segnale Red LCG;Segnale Red LCL;Japan Red 204;Japan Red No. 204;Symuler Lake Red C;Sumikaprint Red C-O;Lake Red C;Permanent Lake Red LC;C.I. 15585:1;Permanent Lake Red LCLL;D&amp;C Red No. 9;Irgalite Red LCB;Lionol Red C-FG 3100;PR 53:1;C.I. PR 53:1;Red 6011;Irgalite Red CBNL;Scarlet LC;Jinguanghong;Jinguanghong C;Graphtol Red LC;Symuler Lake Red C 102;Symuler Lake Red Conc 210",
    "duplicated_cas_no": "12237-52-4;12238-39-0;12238-43-6;12238-41-4;24777-23-9;52627-68-6;68894-03-1",
    "SMILES": "N(=NC1=C(S(=O)(=O)O)C=C(Cl)C(C)=C1)C=2C3=C(C=CC2O)C=CC=C3.[Ba]",
    "meta_data": {
        "InChI": "InChI=1S/C17H13ClN2O4S.Ba/c1-10-8-14(16(9-13(10)18)25(22,23)24)19-20-17-12-5-3-2-4-11(12)6-7-15(17)21;/h2-9,21H,1H3,(H,22,23,24);",
        "InChIKey": null,
        "Canonical SMILES": "[Ba].O=S(=O)(O)C1=CC(Cl)=C(C=C1N=NC2=C(O)C=CC=3C=CC=CC32)C",
        "Molecular Formula": "C<sub>17</sub>H<sub>13</sub>ClN<sub>2</sub>O<sub>4</sub>S.<sup>1</sup>/<sub>2</sub>Ba",
        "Molecular Mass": "",
        "Melting Point": "343-345 °C (decomp)",
        "Density": "1.66 g/cm³"
    }
}