{
    "cas_no": "18842-99-4",
    "key_name": "Scandoside",
    "cn_name": null,
    "alternate_name": "Cyclopenta[<em>c</em>]pyran-4-carboxylic acid, 1-(β-<span class=\"text-smallcaps\">D</span>-glucopyranosyloxy)-1,4a,5,7a-tetrahydro-5-hydroxy-7-(hydroxymethyl)-, (1<em>S</em>,4a<em>S</em>,5<em>R</em>,7a<em>S</em>)-;Scandoside;Cyclopenta[<em>c</em>]pyran-4-carboxylic acid, 1-(β-<span class=\"text-smallcaps\">D</span>-glucopyranosyloxy)-1,4a,5,7a-tetrahydro-5-hydroxy-7-(hydroxymethyl)-, [1<em>S</em>-(1α,4aα,5α,7aα)]-;(1<em>S</em>,4a<em>S</em>,5<em>R</em>,7a<em>S</em>)-1-(β-<span class=\"text-smallcaps\">D</span>-Glucopyranosyloxy)-1,4a,5,7a-tetrahydro-5-hydroxy-7-(hydroxymethyl)cyclopenta[<em>c</em>]pyran-4-carboxylic acid",
    "duplicated_cas_no": "",
    "SMILES": "O([C@H]1[C@]2([C@@](C(C(O)=O)=CO1)([C@H](O)C=C2CO)[H])[H])[C@@H]3O[C@H](CO)[C@@H](O)[C@H](O)[C@H]3O",
    "meta_data": {
        "InChI": "InChI=1S/C16H22O11/c17-2-5-1-7(19)10-6(14(23)24)4-25-15(9(5)10)27-16-13(22)12(21)11(20)8(3-18)26-16/h1,4,7-13,15-22H,2-3H2,(H,23,24)/t7-,8-,9-,10+,11-,12+,13-,15+,16+/m1/s1",
        "InChIKey": null,
        "Canonical SMILES": "O=C(O)C1=COC(OC2OC(CO)C(O)C(O)C2O)C3C(=CC(O)C13)CO",
        "Molecular Formula": "C<sub>16</sub>H<sub>22</sub>O<sub>11</sub>",
        "Molecular Mass": "390.34",
        "Melting Point": "139-143 °C"
    }
}