{
    "cas_no": "41083-11-8",
    "key_name": "Azocyclotin",
    "cn_name": "三唑锡;三(环己基)-(1,2,4-三唑-1-基)锡;",
    "alternate_name": "1<em>H</em>-1,2,4-Triazole, 1-(tricyclohexylstannyl)-;1-(Tricyclohexylstannyl)-1<em>H</em>-1,2,4-triazole;Tricyclotin;Azocyclotin;Peropal;BAY-BUE 1452;Caligur 500SC",
    "duplicated_cas_no": "",
    "SMILES": "[Sn](N1C=NC=N1)(C2CCCCC2)(C3CCCCC3)C4CCCCC4",
    "meta_data": {
        "InChI": "InChI=1S/3C6H11.C2H2N3.Sn/c3*1-2-4-6-5-3-1;1-3-2-5-4-1;/h3*1H,2-6H2;1-2H;/q;;;-1;+1",
        "InChIKey": null,
        "Canonical SMILES": "N=1C=NN(C1)[Sn](C2CCCCC2)(C3CCCCC3)C4CCCCC4",
        "Molecular Formula": "C<sub>20</sub>H<sub>35</sub>N<sub>3</sub>Sn",
        "Molecular Mass": "436.22",
        "Melting Point": "210 °C (decomp)"
    }
}