{
    "cas_no": "30562-34-6",
    "key_name": "Geldanamycin",
    "cn_name": "格尔德霉素;",
    "alternate_name": "Geldanamycin;2-Azabicyclo[16.3.1]docosa-4,6,10,18,21-pentaene-3,20,22-trione, 9,13-dihydroxy-8,14,19-trimethoxy-4,10,12,16-tetramethyl-, 9-carbamate;2-Azabicyclo[16.3.1]docosane, geldanamycin deriv.;2-Azabicyclo[16.3.1]docosa-4,6,10,18,21-pentaene-3,20,22-trione, 9-[(aminocarbonyl)oxy]-13-hydroxy-8,14,19-trimethoxy-4,10,12,16-tetramethyl-, [8<em>S</em>-(4<em>E</em>,6<em>Z</em>,8<em>R</em>*,9<em>R</em>*,10<em>E</em>,12<em>R</em>*,13<em>S</em>*,14<em>R</em>*,16<em>S</em>*)]-;[8<em>S</em>-(4<em>E</em>,6<em>Z</em>,8<em>R</em>*,9<em>R</em>*,10<em>E</em>,12<em>R</em>*,13<em>S</em>*,14<em>R</em>*,16<em>S</em>*)]-9-[(Aminocarbonyl)oxy]-13-hydroxy-8,14,19-trimethoxy-4,10,12,16-tetramethyl-2-azabicyclo[16.3.1]docosa-4,6,10,18,21-pentaene-3,20,22-trione;NSC 122750;NSC 212518;(+)-Geldanamycin;(8S,9S,12S,13R,14S,16R)-13-Hydroxy-8,14,19-trimethoxy-4,10,12,16-tetramethyl-3,20,22-trioxo-2-azabicyclo[16.3.1]docosa-1(21),4,6,10,18-pentaen-9-yl carbamate",
    "duplicated_cas_no": "31828-93-0;150575-55-6;1807916-57-9;1955474-12-0",
    "SMILES": "",
    "meta_data": {
        "InChI": "",
        "InChIKey": null,
        "Canonical SMILES": "",
        "Molecular Formula": "C<sub>29</sub>H<sub>40</sub>N<sub>2</sub>O<sub>9</sub>",
        "Molecular Mass": "560.64",
        "Melting Point": "252-255 °C"
    }
}