{
    "cas_no": "115256-11-6",
    "key_name": "Dofetilide",
    "cn_name": "多非利特;N-[4-(2-{2-[4-(甲磺酰胺基)苯氧基]-N-甲基乙基氨基}乙基)苯基]-甲磺酰胺;",
    "alternate_name": "Methanesulfonamide, <em>N</em>-[4-[2-[methyl[2-[4-[(methylsulfonyl)amino]phenoxy]ethyl]amino]ethyl]phenyl]-;<em>N</em>-[4-[2-[Methyl[2-[4-[(methylsulfonyl)amino]phenoxy]ethyl]amino]ethyl]phenyl]methanesulfonamide;UK 68798;Dofetilide;Tikosyn",
    "duplicated_cas_no": "",
    "SMILES": "N(S(C)(=O)=O)C1=CC=C(CCN(CCOC2=CC=C(NS(C)(=O)=O)C=C2)C)C=C1",
    "meta_data": {
        "InChI": "InChI=1S/C19H27N3O5S2/c1-22(13-12-16-4-6-17(7-5-16)20-28(2,23)24)14-15-27-19-10-8-18(9-11-19)21-29(3,25)26/h4-11,20-21H,12-15H2,1-3H3",
        "InChIKey": null,
        "Canonical SMILES": "O=S(=O)(NC1=CC=C(OCCN(C)CCC2=CC=C(C=C2)NS(=O)(=O)C)C=C1)C",
        "Molecular Formula": "C<sub>19</sub>H<sub>27</sub>N<sub>3</sub>O<sub>5</sub>S<sub>2</sub>",
        "Molecular Mass": "441.56",
        "Melting Point": "147-149 °C"
    }
}