{
    "cas_no": "1951-25-3",
    "key_name": "Amiodarone",
    "cn_name": "胺碘酮;2-丁基-3-苯并呋喃基-4-[2-(二乙氨基)乙氧基-3,5-二碘苯基]甲酮;",
    "alternate_name": "Methanone, (2-butyl-3-benzofuranyl)[4-[2-(diethylamino)ethoxy]-3,5-diiodophenyl]-;Ketone, 2-butyl-3-benzofuranyl 4-[2-(diethylamino)ethoxy]-3,5-diiodophenyl;(2-Butyl-3-benzofuranyl)[4-[2-(diethylamino)ethoxy]-3,5-diiodophenyl]methanone;Amiodarone;2-Butyl-3-benzofuranyl <em>p</em>-[(2-diethylamino)ethoxy]-<em>m</em>,<em>m</em>-diiodophenyl ketone;2-<em>n</em>-Butyl-3′,5′-diiodo-4′-<em>N</em>-diethylaminoethoxy-3-benzoylbenzofuran;2-Butyl-3-[3,5-diiodo-4-(2-diethylaminoethoxy)benzoyl]benzofuran;Sedacoron;Sedacorone;Ancaron;Amidorone;MeSH ID: D000638",
    "duplicated_cas_no": "",
    "SMILES": "C(=O)(C=1C=2C(OC1CCCC)=CC=CC2)C3=CC(I)=C(OCCN(CC)CC)C(I)=C3",
    "meta_data": {
        "InChI": "InChI=1S/C25H29I2NO3/c1-4-7-11-22-23(18-10-8-9-12-21(18)31-22)24(29)17-15-19(26)25(20(27)16-17)30-14-13-28(5-2)6-3/h8-10,12,15-16H,4-7,11,13-14H2,1-3H3",
        "InChIKey": null,
        "Canonical SMILES": "O=C(C1=CC(I)=C(OCCN(CC)CC)C(I)=C1)C=2C=3C=CC=CC3OC2CCCC",
        "Molecular Formula": "C<sub>25</sub>H<sub>29</sub>I<sub>2</sub>NO<sub>3</sub>",
        "Molecular Mass": "645.31",
        "Melting Point": "100-102 °C"
    }
}