{
    "cas_no": "4314-66-3",
    "key_name": "<em>N</em>-Ethylnicotinamide",
    "cn_name": "N-乙基烟酰胺;",
    "alternate_name": "3-Pyridinecarboxamide, <em>N</em>-ethyl-;Nicotinamide, <em>N</em>-ethyl-;<em>N</em>-Ethyl-3-pyridinecarboxamide;<em>N</em>-Ethylnicotinamide;Nicotinic acid monoethylamide;<em>N</em>-Monoethylnicotinamide;NSC 62008",
    "duplicated_cas_no": "",
    "SMILES": "C(NCC)(=O)C=1C=CC=NC1",
    "meta_data": {
        "InChI": "InChI=1S/C8H10N2O/c1-2-10-8(11)7-4-3-5-9-6-7/h3-6H,2H2,1H3,(H,10,11)",
        "InChIKey": null,
        "Canonical SMILES": "O=C(NCC)C=1C=NC=CC1",
        "Molecular Formula": "C<sub>8</sub>H<sub>10</sub>N<sub>2</sub>O",
        "Molecular Mass": "150.18",
        "Boiling Point": "152 °C @ Press: 12 Torr",
        "Melting Point": "57 °C"
    }
}