{
    "cas_no": "4525-46-6",
    "key_name": "Benzyltrimethylammonium iodide",
    "cn_name": "苄基三甲基碘化铵;",
    "alternate_name": "Benzenemethanaminium, <em>N</em>,<em>N</em>,<em>N</em>-trimethyl-, iodide (1:1);Ammonium, benzyltrimethyl-, iodide;Benzenemethanaminium, <em>N</em>,<em>N</em>,<em>N</em>-trimethyl-, iodide;Benzyltrimethylammonium iodide;Benzyldimethylamine methiodide;Trimethylbenzylammonium iodide",
    "duplicated_cas_no": "",
    "SMILES": "C([N+](C)(C)C)C1=CC=CC=C1.[I-]",
    "meta_data": {
        "InChI": "InChI=1S/C10H16N.HI/c1-11(2,3)9-10-7-5-4-6-8-10;/h4-8H,9H2,1-3H3;1H/q+1;/p-1",
        "InChIKey": null,
        "Canonical SMILES": "[I-].C=1C=CC(=CC1)C[N+](C)(C)C",
        "Molecular Formula": "C<sub>10</sub>H<sub>16</sub>N.I",
        "Molecular Mass": "",
        "Melting Point": "179 °C"
    }
}