{
    "cas_no": "2232-08-8",
    "key_name": "1-(<em>p</em>-Toluenesulfonyl)imidazole",
    "cn_name": "1-对甲基苯磺酰咪唑;1-对甲苯磺酰基-1H-咪唑;",
    "alternate_name": "1<em>H</em>-Imidazole, 1-[(4-methylphenyl)sulfonyl]-;Imidazole, 1-(<em>p</em>-tolylsulfonyl)-;1-[(4-Methylphenyl)sulfonyl]-1<em>H</em>-imidazole;<em>N</em>-(<em>p</em>-Toluenesulfonyl)imidazole;1-(<em>p</em>-Toluenesulfonyl)imidazole;1-(<em>p</em>-Tolylsulfonyl)imidazole;1-Tosylimidazole;<em>N</em>-Tosylimidazole;NSC 109348;NSC 669590;<em>p</em>-Toluenesulfonic acid imidazolide;1-(4-Methylphenylsulfonyl)imidazole;1-(4-Methylphenylsulfonyl)-1<em>H</em>-imidazole;1-Tosyl-1<em>H</em>-imidazole",
    "duplicated_cas_no": "",
    "SMILES": "S(=O)(=O)(C1=CC=C(C)C=C1)N2C=CN=C2",
    "meta_data": {
        "InChI": "InChI=1S/C10H10N2O2S/c1-9-2-4-10(5-3-9)15(13,14)12-7-6-11-8-12/h2-8H,1H3",
        "InChIKey": null,
        "Canonical SMILES": "O=S(=O)(C1=CC=C(C=C1)C)N2C=NC=C2",
        "Molecular Formula": "C<sub>10</sub>H<sub>10</sub>N<sub>2</sub>O<sub>2</sub>S",
        "Molecular Mass": "222.26",
        "Melting Point": "77-78 °C"
    }
}