{
    "cas_no": "623-15-4",
    "key_name": "Furfurylideneacetone",
    "cn_name": "4-(2-呋喃基)-3-丁烯-2-酮;",
    "alternate_name": "3-Buten-2-one, 4-(2-furanyl)-;3-Buten-2-one, 4-(2-furyl)-;4-(2-Furanyl)-3-buten-2-one;Furfurylideneacetone;Monofurfurylideneacetone;4-(2-Furyl)-3-buten-2-one;2-Furfurylideneacetone;4-(2-Furyl)-3-butene-2-one;Furfuralacetone;1-(2-Furyl)but-1-en-3-one;Furfurylidenacetone;2-(3-Oxo-1-butenyl)furan;NSC 2065;NSC 6104;NSC 643044;2-(3-Oxobut-1-en-1-yl)furan;4-(2-Furyl)buten-2-one",
    "duplicated_cas_no": "71496-26-9;929900-26-5",
    "SMILES": "C(=CC(C)=O)C1=CC=CO1",
    "meta_data": {
        "InChI": "InChI=1S/C8H8O2/c1-7(9)4-5-8-3-2-6-10-8/h2-6H,1H3",
        "InChIKey": null,
        "Canonical SMILES": "O=C(C=CC=1OC=CC1)C",
        "Molecular Formula": "C<sub>8</sub>H<sub>8</sub>O<sub>2</sub>",
        "Molecular Mass": "136.15",
        "Boiling Point": "113 °C",
        "Melting Point": "39.5 °C"
    }
}