{
    "cas_no": "56-57-5",
    "key_name": "4-Nitroquinoline 1-oxide",
    "cn_name": "4-硝基喹啉-N-氧化物;",
    "alternate_name": "Quinoline, 4-nitro-, 1-oxide;4-NQO;4-Nitroquinoline <em>N</em>-oxide;4-Nitroquinoline 1-oxide;Nitrochin;4-Nitroquinoline oxide;NSC 19645;MeSH ID: D015112",
    "duplicated_cas_no": "711-56-8;52002-25-2",
    "SMILES": "N(=O)(=O)C=1C2=C(N(=O)=CC1)C=CC=C2",
    "meta_data": {
        "InChI": "InChI=1S/C9H6N2O3/c12-10-6-5-9(11(13)14)7-3-1-2-4-8(7)10/h1-6H",
        "InChIKey": null,
        "Canonical SMILES": "O=N(=O)C1=CC=N(=O)C=2C=CC=CC12",
        "Molecular Formula": "C<sub>9</sub>H<sub>6</sub>N<sub>2</sub>O<sub>3</sub>",
        "Molecular Mass": "190.16",
        "Melting Point": "154 °C"
    }
}