{
    "cas_no": "3619-22-5",
    "key_name": "4-Methylbenzohydrazide",
    "cn_name": "对甲苯甲酰肼;",
    "alternate_name": "Benzoic acid, 4-methyl-, hydrazide;<em>p</em>-Toluic acid, hydrazide;4-Methylbenzoic acid hydrazide;<em>p</em>-Methylbenzohydrazide;<em>p</em>-Methylbenzoic acid hydrazide;<em>p</em>-Methylbenzoylhydrazine;<em>p</em>-Toluoylhydrazine;<em>p</em>-Toluic hydrazide;4-Methylbenzoylhydrazide;4-Methylbenzenecarboxylic acid hydrazide;4-Methylbenzohydrazide;(4-Methylbenzoyl)hydrazine;4-Toluic acid hydrazide;<em>p</em>-Methylbenzoyl hydrazide;4-Toluic hydrazide;NSC 61567;4-Methylbenzhydrazide;4-Methylbenzoic hydrazide;4-Toluihydrazide;2′-Methyl[1,1′-biphenyl]-4-carboxylic acid hydrazide",
    "duplicated_cas_no": "2827694-27-7",
    "SMILES": "C(NN)(=O)C1=CC=C(C)C=C1",
    "meta_data": {
        "InChI": "InChI=1S/C8H10N2O/c1-6-2-4-7(5-3-6)8(11)10-9/h2-5H,9H2,1H3,(H,10,11)",
        "InChIKey": null,
        "Canonical SMILES": "O=C(NN)C1=CC=C(C=C1)C",
        "Molecular Formula": "C<sub>8</sub>H<sub>10</sub>N<sub>2</sub>O",
        "Molecular Mass": "150.18",
        "Melting Point": "116-118 °C"
    }
}