{
    "cas_no": "127625-29-0",
    "key_name": "Fananserin",
    "cn_name": null,
    "alternate_name": "2<em>H</em>-Naphth[1,8-<em>cd</em>]isothiazole, 2-[3-[4-(4-fluorophenyl)-1-piperazinyl]propyl]-, 1,1-dioxide;RP 62203;2-[3-[4-(<em>p</em>-Fluorophenyl)-1-piperazinyl]propyl]-2<em>H</em>-naphth[1,8-<em>cd</em>]isothiazole 1,1-dioxide;Fananserin",
    "duplicated_cas_no": "1034315-47-3",
    "SMILES": "C(CCN1CCN(CC1)C2=CC=C(F)C=C2)N3C4=C5C(S3(=O)=O)=CC=CC5=CC=C4",
    "meta_data": {
        "InChI": "InChI=1S/C23H24FN3O2S/c24-19-8-10-20(11-9-19)26-16-14-25(15-17-26)12-3-13-27-21-6-1-4-18-5-2-7-22(23(18)21)30(27,28)29/h1-2,4-11H,3,12-17H2",
        "InChIKey": null,
        "Canonical SMILES": "O=S1(=O)C2=CC=CC3=CC=CC(=C32)N1CCCN4CCN(C5=CC=C(F)C=C5)CC4",
        "Molecular Formula": "C<sub>23</sub>H<sub>24</sub>FN<sub>3</sub>O<sub>2</sub>S",
        "Molecular Mass": "425.52",
        "Melting Point": "95-97 °C"
    }
}