{
    "cas_no": "27193-86-8",
    "key_name": "Dodecylphenol",
    "cn_name": null,
    "alternate_name": "Phenol, dodecyl-;Dodecylphenol;ADX 100;<em>n</em>-Dodecylphenol",
    "duplicated_cas_no": "1331-57-3",
    "SMILES": "",
    "meta_data": {
        "InChI": "",
        "InChIKey": null,
        "Canonical SMILES": "",
        "Molecular Formula": "C<sub>18</sub>H<sub>30</sub>O",
        "Molecular Mass": "",
        "Boiling Point": "314-334 °C",
        "Density": "0.94 g/cm³ @ Temp: 20 °C"
    }
}