{
    "cas_no": "1187-42-4",
    "key_name": "Diaminomaleonitrile",
    "cn_name": "二氨基马来腈;2,3-二氨基-2-丁烯二腈;DAMN;",
    "alternate_name": "2-Butenedinitrile, 2,3-diamino-, (2<em>Z</em>)-;Maleonitrile, diamino-;2-Butenedinitrile, 2,3-diamino-, (<em>Z</em>)-;(2<em>Z</em>)-2,3-Diamino-2-butenedinitrile;Diaminomaleonitrile;Hydrogen cyanide tetramer;2,3-Diaminomaleonitrile;DAMN;Diaminomaleodinitrile",
    "duplicated_cas_no": "54414-88-9",
    "SMILES": "C(=C(\\C#N)/N)(\\C#N)/N",
    "meta_data": {
        "InChI": "InChI=1S/C4H4N4/c5-1-3(7)4(8)2-6/h7-8H2/b4-3-",
        "InChIKey": null,
        "Canonical SMILES": "N#CC(N)=C(C#N)N",
        "Molecular Formula": "C<sub>4</sub>H<sub>4</sub>N<sub>4</sub>",
        "Molecular Mass": "108.10",
        "Melting Point": "182-184 °C"
    }
}