{
    "cas_no": "1314-91-6",
    "key_name": "Lead telluride",
    "cn_name": "碲化铅;",
    "alternate_name": "Lead telluride (PbTe);Lead monotelluride;Lead telluride;Lead(2+) telluride;Lead telluride (Pb<sub>0.5</sub>Te<sub>0.5</sub>);Plumbous telluride",
    "duplicated_cas_no": "1256909-95-1;1899002-67-5;2097729-73-0;2098487-24-0;2712640-33-8;2955613-56-4;2955613-58-6",
    "SMILES": "[Pb]=[Te]",
    "meta_data": {
        "InChI": "InChI=1S/Pb.Te",
        "InChIKey": null,
        "Canonical SMILES": "[Te]=[Pb]",
        "Molecular Formula": "PbTe",
        "Molecular Mass": "",
        "Melting Point": "925 °C",
        "Density": "8.17 g/cm³ @ Temp: Room temp"
    }
}