{
    "cas_no": "145022-44-2",
    "key_name": "1-Ethyl-3-methylimidazolium trifluoromethanesulfonate",
    "cn_name": "1-乙基-3-甲基咪唑三氟甲磺酸盐;",
    "alternate_name": "1<em>H</em>-Imidazolium, 3-ethyl-1-methyl-, 1,1,1-trifluoromethanesulfonate (1:1);1<em>H</em>-Imidazolium, 1-ethyl-3-methyl-, salt with trifluoromethanesulfonic acid (1:1);1-Ethyl-3-methylimidazolium triflate;1-Ethyl-3-methylimidazolium trifluoromethanesulfonate;1-Ethyl-3-methylimidazolium trifluoromethylsulfonate(1-);3-Ethyl-1-methylimidazolium triflate;1-Ethyl-3-methyl-1<em>H</em>-imidazolium trifluoromethanesulfonate;1-Methyl-3-ethylimidazolium trifluoromethylsulfonate;1-Methyl-3-ethylimidazolium trifluoromethanesulfonate;1-Ethyl-3-methylimidazolium trifluoromethylsulfonate;1-Ethyl-3-methylimidazolium triflouromethansulfonate;1-Ethyl-3-methylimidazolium trifluoromethanesulfonate(1-);1-Ethyl-3-methylimidazolinium triflate;1-Ethyl-3-methylimidazolium trifluoromethanesufonate",
    "duplicated_cas_no": "1122104-56-6;1295648-96-2",
    "SMILES": "C(C)[N+]1=CN(C)C=C1.C(S(=O)(=O)[O-])(F)(F)F",
    "meta_data": {
        "InChI": "InChI=1S/C6H11N2.CHF3O3S/c1-3-8-5-4-7(2)6-8;2-1(3,4)8(5,6)7/h4-6H,3H2,1-2H3;(H,5,6,7)/q+1;/p-1",
        "InChIKey": null,
        "Canonical SMILES": "O=S(=O)([O-])C(F)(F)F.C1=C[N+](=CN1C)CC",
        "Molecular Formula": "C<sub>6</sub>H<sub>11</sub>N<sub>2</sub>.CF<sub>3</sub>O<sub>3</sub>S",
        "Molecular Mass": "",
        "Boiling Point": "388.9 °C",
        "Melting Point": "-10 °C",
        "Density": "1.3572 g/cm³"
    }
}