{
    "cas_no": "15174-47-7",
    "key_name": "α-Methyl-<em>trans</em>-cinnamaldehyde",
    "cn_name": null,
    "alternate_name": "2-Propenal, 2-methyl-3-phenyl-, (2<em>E</em>)-;Cinnamaldehyde, α-methyl-, (<em>E</em>)-;2-Propenal, 2-methyl-3-phenyl-, (<em>E</em>)-;(2<em>E</em>)-2-Methyl-3-phenyl-2-propenal;(<em>E</em>)-α-Methylcinnamaldehyde;(<em>E</em>)-2-Methyl-3-phenylpropenal;(<em>E</em>)-2-Methyl-3-phenyl-2-propenal;<em>trans</em>-α-Methylcinnamaldehyde;(<em>E</em>)-2-Methyl-3-phenylacrolein;<em>trans</em>-2-Methyl-3-phenyl-2-propenal;α-Methyl-<em>trans</em>-cinnamaldeyhde;α-Methyl-<em>trans</em>-cinnamaldehyde;<em>trans</em>-2-Methyl-3-phenylacrolein;(<em>E</em>)-2-Methyl-3-phenylacrylaldehyde;α-Methyl-(E)-cinnamaldehyde;(E)-2-Methyl-3-phenylacrylaldehyde",
    "duplicated_cas_no": "1031781-18-6;2408821-55-4",
    "SMILES": "C(=C(/C=O)\\C)\\C1=CC=CC=C1",
    "meta_data": {
        "InChI": "InChI=1S/C10H10O/c1-9(8-11)7-10-5-3-2-4-6-10/h2-8H,1H3/b9-7+",
        "InChIKey": null,
        "Canonical SMILES": "O=CC(=CC=1C=CC=CC1)C",
        "Molecular Formula": "C<sub>10</sub>H<sub>10</sub>O",
        "Molecular Mass": "146.19",
        "Boiling Point": "130 °C @ Press: 5 Torr",
        "Density": "1.042 g/cm³ @ Temp: 20 °C"
    }
}