{
    "cas_no": "84496-56-0",
    "key_name": "Clomeprop",
    "cn_name": "稗草胺;(RS)-2-(2，4-二氨-间-甲苯氧基)丙酰苯胺;",
    "alternate_name": "Propanamide, 2-(2,4-dichloro-3-methylphenoxy)-<em>N</em>-phenyl-;2-(2,4-Dichloro-3-methylphenoxy)-<em>N</em>-phenylpropanamide;2-(2,4-Dichloro-3-methylphenoxy)propionanilide;Clomeprop;α-(2,4-Dichloro-3-methylphenoxy)propionic acid anilide;MY 15",
    "duplicated_cas_no": "148330-02-3",
    "SMILES": "O(C(C(NC1=CC=CC=C1)=O)C)C2=C(Cl)C(C)=C(Cl)C=C2",
    "meta_data": {
        "InChI": "InChI=1S/C16H15Cl2NO2/c1-10-13(17)8-9-14(15(10)18)21-11(2)16(20)19-12-6-4-3-5-7-12/h3-9,11H,1-2H3,(H,19,20)",
        "InChIKey": null,
        "Canonical SMILES": "O=C(NC=1C=CC=CC1)C(OC2=CC=C(Cl)C(=C2Cl)C)C",
        "Molecular Formula": "C<sub>16</sub>H<sub>15</sub>Cl<sub>2</sub>NO<sub>2</sub>",
        "Molecular Mass": "324.20",
        "Melting Point": "146.5 °C"
    }
}