{
    "cas_no": "1072-97-5",
    "key_name": "2-Amino-5-bromopyridine",
    "cn_name": "2-氨基-5-溴吡啶;",
    "alternate_name": "2-Pyridinamine, 5-bromo-;Pyridine, 2-amino-5-bromo-;5-Bromo-2-pyridinamine;5-Bromo-2-aminopyridine;2-Amino-5-bromopyridine;5-Bromopyridin-2-ylamine;NSC 26282",
    "duplicated_cas_no": "",
    "SMILES": "BrC=1C=CC(N)=NC1",
    "meta_data": {
        "InChI": "InChI=1S/C5H5BrN2/c6-4-1-2-5(7)8-3-4/h1-3H,(H2,7,8)",
        "InChIKey": null,
        "Canonical SMILES": "BrC1=CN=C(N)C=C1",
        "Molecular Formula": "C<sub>5</sub>H<sub>5</sub>BrN<sub>2</sub>",
        "Molecular Mass": "173.01",
        "Melting Point": "137 °C"
    }
}