{
    "cas_no": "68377-91-3",
    "key_name": "Arotinolol hydrochloride",
    "cn_name": "盐酸阿罗洛尔;",
    "alternate_name": "2-Thiophenecarboxamide, 5-[2-[[3-[(1,1-dimethylethyl)amino]-2-hydroxypropyl]thio]-4-thiazolyl]-, hydrochloride (1:1);2-Thiophenecarboxamide, 5-[2-[[3-[(1,1-dimethylethyl)amino]-2-hydroxypropyl]thio]-4-thiazolyl]-, monohydrochloride, (±)-;2-Thiophenecarboxamide, 5-[2-[[3-[(1,1-dimethylethyl)amino]-2-hydroxypropyl]thio]-4-thiazolyl]-, monohydrochloride;S 596;Arotinolol hydrochloride;ARL;Almarl",
    "duplicated_cas_no": "85460-42-0",
    "SMILES": "C(N)(=O)C=1SC(=CC1)C=2N=C(SCC(CNC(C)(C)C)O)SC2.Cl",
    "meta_data": {
        "InChI": "InChI=1S/C15H21N3O2S3.ClH/c1-15(2,3)17-6-9(19)7-21-14-18-10(8-22-14)11-4-5-12(23-11)13(16)20;/h4-5,8-9,17,19H,6-7H2,1-3H3,(H2,16,20);1H",
        "InChIKey": null,
        "Canonical SMILES": "Cl.O=C(N)C=1SC(=CC1)C=2N=C(SC2)SCC(O)CNC(C)(C)C",
        "Molecular Formula": "C<sub>15</sub>H<sub>21</sub>N<sub>3</sub>O<sub>2</sub>S<sub>3</sub>.ClH",
        "Molecular Mass": "",
        "Melting Point": "234-235.5 °C"
    }
}