{
    "cas_no": "107724-20-9",
    "key_name": "(+)-Eplerenone",
    "cn_name": "依普利酮;",
    "alternate_name": "Pregn-4-ene-7,21-dicarboxylic acid, 9,11-epoxy-17-hydroxy-3-oxo-, γ-lactone, 7-methyl ester, (7α,11α,17α)-;Pregn-4-ene-7,21-dicarboxylic acid, 9,11-epoxy-17-hydroxy-3-oxo-, γ-lactone, methyl ester, (7α,11α,17α)-;Spiro[9,11-epoxy-9<em>H</em>-cyclopenta[<em>a</em>]phenanthrene-17(2<em>H</em>),2′(3′<em>H</em>)-furan], pregn-4-ene-7,21-dicarboxylic acid deriv.;CGP 30083;SC 66110;Eplerenone;SC 6110;Epoxymexrenone;Inspra;Selara;(+)-Eplerenone;Methyl (1R,2S,9R,10R,11S,14R,15S,17R)-2,15-dimethyl-5,5′-dioxospiro[18-oxapentacyclo[8.8.0.0<sup>1,17</sup>.0<sup>2,7</sup>.0<sup>11,15</sup>]octadec-6-ene-14,2′-oxolane]-9-carboxylate",
    "duplicated_cas_no": "",
    "SMILES": "C[C@@]12[C@]34[C@]([C@]5([C@](C)(C[C@]3(O4)[H])[C@@]6(CC5)CCC(=O)O6)[H])([C@H](C(OC)=O)CC1=CC(=O)CC2)[H]",
    "meta_data": {
        "InChI": "InChI=1S/C24H30O6/c1-21-7-4-14(25)10-13(21)11-15(20(27)28-3)19-16-5-8-23(9-6-18(26)30-23)22(16,2)12-17-24(19,21)29-17/h10,15-17,19H,4-9,11-12H2,1-3H3/t15-,16+,17-,19+,21+,22+,23-,24-/m1/s1",
        "InChIKey": null,
        "Canonical SMILES": "O=C1OC2(CC1)CCC3C4C(C(=O)OC)CC5=CC(=O)CCC5(C)C64OC6CC32C",
        "Molecular Formula": "C<sub>24</sub>H<sub>30</sub>O<sub>6</sub>",
        "Molecular Mass": "414.49",
        "Melting Point": "242-244 °C"
    }
}