{
    "cas_no": "63-91-2",
    "key_name": "<span class=\"text-smallcaps\">L</span>-Phenylalanine",
    "cn_name": "L-苯丙氨酸;",
    "alternate_name": "<span class=\"text-smallcaps\">L</span>-Phenylalanine;Alanine, phenyl-, <span class=\"text-smallcaps\">L</span>-;(<em>S</em>)-α-Aminohydrocinnamic acid;(<em>S</em>)-α-Amino-β-phenylpropionic acid;Phenylalanine;β-Phenyl-<span class=\"text-smallcaps\">L</span>-alanine;β-Phenyl-α-alanine;Antibiotic FN 1636;Benzenepropanoic acid, α-amino-, (<em>S</em>)-;Phenyl-α-alanine;3-Phenyl-<span class=\"text-smallcaps\">L</span>-alanine;3-Phenylalanine;(<em>S</em>)-Phenylalanine;(<em>S</em>)-α-Aminobenzenepropanoic acid;(<em>S</em>)-2-Amino-3-phenylpropionic acid;<span class=\"text-smallcaps\">L</span>-Alanine, 3-phenyl-;(<em>S</em>)-2-Amino-3-phenylpropanoic acid;(<em>S</em>)-(-)-Phenylalanine;(-)-Phenylalanine;<span class=\"text-smallcaps\">L</span>-(-)-Phenylalanine;NSC 79477;(2<em>S</em>)-2-Amino-3-phenylpropanoic acid;(2s)-2-Amino-3-phenylpropanoic acid;386: PN: WO2022056313 SEQID: 392 claimed protein;MeSH ID: D010649;390: PN: WO2023172654 SEQID: 392 claimed sequence",
    "duplicated_cas_no": "3617-44-5;5297-02-9;10549-09-4;67675-33-6;801204-11-5;2416148-28-0",
    "SMILES": "C([C@@H](C(O)=O)N)C1=CC=CC=C1",
    "meta_data": {
        "InChI": "InChI=1S/C9H11NO2/c10-8(9(11)12)6-7-4-2-1-3-5-7/h1-5,8H,6,10H2,(H,11,12)/t8-/m0/s1",
        "InChIKey": null,
        "Canonical SMILES": "O=C(O)C(N)CC=1C=CC=CC1",
        "Molecular Formula": "C<sub>9</sub>H<sub>11</sub>NO<sub>2</sub>",
        "Molecular Mass": "165.19",
        "Melting Point": "283 °C (decomp)",
        "Density": "1.24 g/cm³"
    }
}