{
    "cas_no": "141699-59-4",
    "key_name": "4-[(Methylsulfonyl)oxy]piperidine-1-carboxylic acid tert-butyl ester",
    "cn_name": "1-Boc-4-甲烷磺酰氧基哌啶;4-甲烷磺酰氧基哌啶-1-甲酸叔丁酯;",
    "alternate_name": "1-Piperidinecarboxylic acid, 4-[(methylsulfonyl)oxy]-, 1,1-dimethylethyl ester;1-(<em>tert</em>-Butoxycarbonyl)-4-piperidinyl methanesulfonate;<em>tert</em>-Butyl 4-methylsulfonyloxy-1-piperidinecarboxylate;1-<em>tert</em>-Butoxycarbonyl-4-methylsulfonyloxypiperidine;1-(<em>tert</em>-Butoxycarbonyl)-4-methanesulfonyloxypiperidine;1,1-Dimethylethyl 4-[(methylsulfonyl)oxy]-1-piperidinecarboxylate;<em>tert</em>-Butyl 4-(methanesulfonyloxy)piperidine-1-carboxylate;4-[(Methylsulfonyl)oxy]piperidine-1-carboxylic acid tert-butyl ester;1-Boc-4-(methylsulfonyloxy)piperidine;<em>tert</em>-Butyl 4-(methylsulfonyloxy)piperidin-1-carboxylate;4-Methanesulfonyloxy-piperidine-1-carboxylic acid tert-butyl ester",
    "duplicated_cas_no": "900152-13-8;1911584-92-3",
    "SMILES": "O(S(C)(=O)=O)C1CCN(C(OC(C)(C)C)=O)CC1",
    "meta_data": {
        "InChI": "InChI=1S/C11H21NO5S/c1-11(2,3)16-10(13)12-7-5-9(6-8-12)17-18(4,14)15/h9H,5-8H2,1-4H3",
        "InChIKey": null,
        "Canonical SMILES": "O=C(OC(C)(C)C)N1CCC(OS(=O)(=O)C)CC1",
        "Molecular Formula": "C<sub>11</sub>H<sub>21</sub>NO<sub>5</sub>S",
        "Molecular Mass": "279.35",
        "Melting Point": "193-195 °C"
    }
}