{
    "cas_no": "285983-48-4",
    "key_name": "Doramapimod",
    "cn_name": "1-[2-(4-甲基苯基)-5-叔丁基吡唑-3-基]-3-[4-(2-吗啉-4-基乙氧基)萘-1-基]脲;",
    "alternate_name": "Urea, <em>N</em>-[3-(1,1-dimethylethyl)-1-(4-methylphenyl)-1<em>H</em>-pyrazol-5-yl]-<em>N</em>′-[4-[2-(4-morpholinyl)ethoxy]-1-naphthalenyl]-;<em>N</em>-[3-(1,1-Dimethylethyl)-1-(4-methylphenyl)-1<em>H</em>-pyrazol-5-yl]-<em>N</em>′-[4-[2-(4-morpholinyl)ethoxy]-1-naphthalenyl]urea;Birb 796;Doramapimod;BIRB 796BS;1-[5-tert-butyl-2-(4-methylphenyl)pyrazol-3-yl]-3-[4-(2-morpholin-4-ylethoxy)naphthalen-1-yl]urea;BRB 796;1-[5-<em>tert</em>-Butyl-2-(4-methylphenyl)pyrazol-3-yl]-3-[4-(2-morpholin-4-ylethoxy)naphthalen-1-yl]urea;UNC 10225354;UNC10225354",
    "duplicated_cas_no": "",
    "SMILES": "N(C(NC=1C2=C(C(OCCN3CCOCC3)=CC1)C=CC=C2)=O)C=4N(N=C(C(C)(C)C)C4)C5=CC=C(C)C=C5",
    "meta_data": {
        "InChI": "InChI=1S/C31H37N5O3/c1-22-9-11-23(12-10-22)36-29(21-28(34-36)31(2,3)4)33-30(37)32-26-13-14-27(25-8-6-5-7-24(25)26)39-20-17-35-15-18-38-19-16-35/h5-14,21H,15-20H2,1-4H3,(H2,32,33,37)",
        "InChIKey": null,
        "Canonical SMILES": "O=C(NC1=CC=C(OCCN2CCOCC2)C=3C=CC=CC13)NC4=CC(=NN4C5=CC=C(C=C5)C)C(C)(C)C",
        "Molecular Formula": "C<sub>31</sub>H<sub>37</sub>N<sub>5</sub>O<sub>3</sub>",
        "Molecular Mass": "527.66",
        "Melting Point": "142-143 °C"
    }
}