{
    "cas_no": "1271-94-9",
    "key_name": "(1-Oxobutyl)ferrocene",
    "cn_name": "丁酰基二茂铁;",
    "alternate_name": "Ferrocene, (1-oxobutyl)-;1-Butanone, 1-ferrocenyl-;Iron, (butyrylcyclopentadienyl)cyclopentadienyl-;(1-Oxobutyl)ferrocene;1-Butanone, 1-(cyclopentadienyl)-, cyclopentadienyliron deriv.;Butyrylferrocene;Butyryldicyclopentadienyliron;Butanoyl ferrocene;<em>n</em>-Butyrylferrocene",
    "duplicated_cas_no": "",
    "SMILES": "C(CCC)(=O)[C-]12[Fe+2]3456789([CH]1=[CH]3[CH]4=[CH]52)[CH-]%10[CH]6=[CH]7[CH]8=[CH]9%10",
    "meta_data": {
        "InChI": "InChI=1S/C9H11O.C5H5.Fe/c1-2-5-9(10)8-6-3-4-7-8;1-2-4-5-3-1;/h3-4,6-7H,2,5H2,1H3;1-5H;/q2*-1;+2",
        "InChIKey": null,
        "Canonical SMILES": "O=C(CCC)[C-]12[CH]3=[CH]4[CH]5=[CH]1[Fe+2]67894532[CH]=%10[CH]9=[CH]8[CH-]7[CH]%106",
        "Molecular Formula": "C<sub>14</sub>H<sub>16</sub>FeO",
        "Molecular Mass": "",
        "Boiling Point": "120-122 °C @ Press: 0.25 Torr",
        "Melting Point": "36 °C"
    }
}