{
    "cas_no": "3695-77-0",
    "key_name": "Triphenylmethanethiol",
    "cn_name": "三苯基甲硫醇;",
    "alternate_name": "Benzenemethanethiol, α,α-diphenyl-;Methanethiol, triphenyl-;α,α-Diphenylbenzenemethanethiol;Tritylthiol;Trityl mercaptan;Triphenylmethyl mercaptan;Triphenylmethanethiol;Triphenylmethylthiol;NSC 22520;Hydrotriphenylsulfur",
    "duplicated_cas_no": "",
    "SMILES": "C(S)(C1=CC=CC=C1)(C2=CC=CC=C2)C3=CC=CC=C3",
    "meta_data": {
        "InChI": "InChI=1S/C19H16S/c20-19(16-10-4-1-5-11-16,17-12-6-2-7-13-17)18-14-8-3-9-15-18/h1-15,20H",
        "InChIKey": null,
        "Canonical SMILES": "SC(C=1C=CC=CC1)(C=2C=CC=CC2)C=3C=CC=CC3",
        "Molecular Formula": "C<sub>19</sub>H<sub>16</sub>S",
        "Molecular Mass": "276.40",
        "Melting Point": "107 °C",
        "Density": "1.214 g/cm³"
    }
}