{
    "cas_no": "621-72-7",
    "key_name": "Dibazole",
    "cn_name": "地巴唑;2-苄基苯并咪唑;",
    "alternate_name": "1<em>H</em>-Benzimidazole, 2-(phenylmethyl)-;Benzimidazole, 2-benzyl-;2-(Phenylmethyl)-1<em>H</em>-benzimidazole;Bendazol;2-Benzylbenzimidazole;Dibasol;Dibazol;Dibazole;Tromasedan;Bendazole;NSC 60020;NSC 631632;2-Benzyl-1<em>H</em>-benzimidazole;2-Benzyl-1<em>H</em>-benzo[<em>d</em>]imidazole;2-Benzyl-1<em>H</em>-1,3-benzodiazole;2-Benzyl-1<em>H</em>-benzoimidazole",
    "duplicated_cas_no": "102389-81-1",
    "SMILES": "C(C=1NC=2C(N1)=CC=CC2)C3=CC=CC=C3",
    "meta_data": {
        "InChI": "InChI=1S/C14H12N2/c1-2-6-11(7-3-1)10-14-15-12-8-4-5-9-13(12)16-14/h1-9H,10H2,(H,15,16)",
        "InChIKey": null,
        "Canonical SMILES": "N=1C=2C=CC=CC2NC1CC=3C=CC=CC3",
        "Molecular Formula": "C<sub>14</sub>H<sub>12</sub>N<sub>2</sub>",
        "Molecular Mass": "208.26",
        "Melting Point": "187 °C",
        "Density": "1.14 g/cm³ @ Temp: 298.15 °C"
    }
}