{
    "cas_no": "4812-40-2",
    "key_name": "Hydroxymetronidazole",
    "cn_name": null,
    "alternate_name": "1<em>H</em>-Imidazole-1-ethanol, 2-(hydroxymethyl)-5-nitro-;Imidazole-1-ethanol, 2-(hydroxymethyl)-5-nitro-;2-(Hydroxymethyl)-5-nitro-1<em>H</em>-imidazole-1-ethanol;1-(2-Hydroxyethyl)-2-(hydroxymethyl)-5-nitroimidazole;Hydroxymetronidazole;2-[2-(Hydroxymethyl)-5-nitro-1<em>H</em>-imidazol-1-yl]ethan-1-ol",
    "duplicated_cas_no": "",
    "SMILES": "C(CO)N1C(N(=O)=O)=CN=C1CO",
    "meta_data": {
        "InChI": "InChI=1S/C6H9N3O4/c10-2-1-8-5(4-11)7-3-6(8)9(12)13/h3,10-11H,1-2,4H2",
        "InChIKey": null,
        "Canonical SMILES": "O=N(=O)C1=CN=C(N1CCO)CO",
        "Molecular Formula": "C<sub>6</sub>H<sub>9</sub>N<sub>3</sub>O<sub>4</sub>",
        "Molecular Mass": "187.15",
        "Melting Point": "117-119 °C"
    }
}