{
    "cas_no": "24962-75-2",
    "key_name": "3-Amino-4-hydroxy-<em>N</em>,<em>N</em>-dimethylbenzenesulfonamide",
    "cn_name": null,
    "alternate_name": "Benzenesulfonamide, 3-amino-4-hydroxy-<em>N</em>,<em>N</em>-dimethyl-;Metanilamide, 4-hydroxy-<em>N</em><sup>1</sup>,<em>N</em><sup>1</sup>-dimethyl-;1-Phenol-4-sulfonamide, 2-amino-<em>N</em>,<em>N</em>-dimethyl-;3-Amino-4-hydroxy-<em>N</em>,<em>N</em>-dimethylbenzenesulfonamide;3-Amino-4-hydroxy-<em>N</em>,<em>N</em>-dimethylbenzenesulphonamide;3-Amino-4-hydroxy-<em>N</em>,<em>N</em>-dimethylbenzene-1-sulfonamide",
    "duplicated_cas_no": "79-99-2",
    "SMILES": "S(N(C)C)(=O)(=O)C1=CC(N)=C(O)C=C1",
    "meta_data": {
        "InChI": "InChI=1S/C8H12N2O3S/c1-10(2)14(12,13)6-3-4-8(11)7(9)5-6/h3-5,11H,9H2,1-2H3",
        "InChIKey": null,
        "Canonical SMILES": "O=S(=O)(C1=CC=C(O)C(N)=C1)N(C)C",
        "Molecular Formula": "C<sub>8</sub>H<sub>12</sub>N<sub>2</sub>O<sub>3</sub>S",
        "Molecular Mass": "216.26",
        "Melting Point": "156-160 °C"
    }
}