{
    "cas_no": "613-37-6",
    "key_name": "4-Methoxybiphenyl",
    "cn_name": "4-甲氧基联苯;",
    "alternate_name": "1,1′-Biphenyl, 4-methoxy-;Anisole, <em>p</em>-phenyl-;4-Methoxy-1,1′-biphenyl;4-Methoxybiphenyl;<em>p</em>-Methoxybiphenyl;<em>p</em>-Phenylanisole;4-Phenylanisole;4-(4-Methoxyphenyl)benzene;NSC 3793;<em>p</em>-Methoxyphenyl benzene;1-Phenyl-4-methoxybenzene;1-Methoxy-4-phenylbenzene;Piperazine, 1-methoxy-4-phenyl-",
    "duplicated_cas_no": "2750911-84-1",
    "SMILES": "O(C)C1=CC=C(C=C1)C2=CC=CC=C2",
    "meta_data": {
        "InChI": "InChI=1S/C13H12O/c1-14-13-9-7-12(8-10-13)11-5-3-2-4-6-11/h2-10H,1H3",
        "InChIKey": null,
        "Canonical SMILES": "O(C=1C=CC(=CC1)C=2C=CC=CC2)C",
        "Molecular Formula": "C<sub>13</sub>H<sub>12</sub>O",
        "Molecular Mass": "184.23",
        "Boiling Point": "157 °C @ Press: 10 Torr",
        "Melting Point": "90 °C",
        "Density": "1.0278 g/cm³ @ Temp: 100 °C"
    }
}