{
    "cas_no": "31083-55-3",
    "key_name": "2-(3-Pyridinylmethylene)-1<em>H</em>-indene-1,3(2<em>H</em>)-dione",
    "cn_name": null,
    "alternate_name": "1<em>H</em>-Indene-1,3(2<em>H</em>)-dione, 2-(3-pyridinylmethylene)-;1,3-Indandione, 2-(3-pyridylmethylene)-;2-(3-Pyridinylmethylene)-1<em>H</em>-indene-1,3(2<em>H</em>)-dione;2-(3-Pyridylmethylene)-1,3-indandione;NSC 600157;PRT 4165;SML 1013;2-(Pyridin-3-ylmethylidene)indene-1,3-dione;2-[(Pyridin-3-yl)methylidene]-2,3-dihydro-1<em>H</em>-indene-1,3-dione;2-Pyridin-3-ylmethylene-indan-1,3-dione",
    "duplicated_cas_no": "",
    "SMILES": "O=C1C=2C(C(=O)C1=CC=3C=CC=NC3)=CC=CC2",
    "meta_data": {
        "InChI": "InChI=1S/C15H9NO2/c17-14-11-5-1-2-6-12(11)15(18)13(14)8-10-4-3-7-16-9-10/h1-9H",
        "InChIKey": null,
        "Canonical SMILES": "O=C1C=2C=CC=CC2C(=O)C1=CC=3C=NC=CC3",
        "Molecular Formula": "C<sub>15</sub>H<sub>9</sub>NO<sub>2</sub>",
        "Molecular Mass": "235.24",
        "Melting Point": "154-161 °C"
    }
}