{
    "cas_no": "694-32-6",
    "key_name": "1-Methyl-2-imidazolidinone",
    "cn_name": "1-甲基-2-咪唑啉酮;",
    "alternate_name": "2-Imidazolidinone, 1-methyl-;1-Methyl-2-imidazolidinone;1-Methyl-2-imidazolidone;<em>N</em>-Methyl-1,3-propanediamine cyclic urea;3-Methylimidazolidin-2-one;N-Methyl-2-imidazolidone;1-Methylimidazolidine-2-one",
    "duplicated_cas_no": "",
    "SMILES": "O=C1N(C)CCN1",
    "meta_data": {
        "InChI": "InChI=1S/C4H8N2O/c1-6-3-2-5-4(6)7/h2-3H2,1H3,(H,5,7)",
        "InChIKey": null,
        "Canonical SMILES": "O=C1NCCN1C",
        "Molecular Formula": "C<sub>4</sub>H<sub>8</sub>N<sub>2</sub>O",
        "Molecular Mass": "100.12",
        "Boiling Point": "100-190 °C @ Press: 13 Torr",
        "Melting Point": "115-116 °C"
    }
}