{
    "cas_no": "137-17-7",
    "key_name": "2,4,5-Trimethylaniline",
    "cn_name": "2,4,5-三甲基苯胺;",
    "alternate_name": "Benzenamine, 2,4,5-trimethyl-;Aniline, 2,4,5-trimethyl-;2,4,5-Trimethylbenzenamine;2,4,5-Trimethylaniline;Pseudocumidine;ψ-Cumidine;2,4,5-Trimethylphenylamine;NSC 37004;NSC 5297",
    "duplicated_cas_no": "",
    "SMILES": "CC1=C(C)C=C(N)C(C)=C1",
    "meta_data": {
        "InChI": "InChI=1S/C9H13N/c1-6-4-8(3)9(10)5-7(6)2/h4-5H,10H2,1-3H3",
        "InChIKey": null,
        "Canonical SMILES": "NC=1C=C(C(=CC1C)C)C",
        "Molecular Formula": "C<sub>9</sub>H<sub>13</sub>N",
        "Molecular Mass": "135.21",
        "Boiling Point": "234.5 °C",
        "Melting Point": "68 °C",
        "Density": "0.957 g/cm³"
    }
}