{
    "cas_no": "931-59-9",
    "key_name": "Benzenesulfenyl chloride",
    "cn_name": null,
    "alternate_name": "Benzenesulfenyl chloride;Benzene, (chlorothio)-;Phenyl chloro sulfide;Phenylsulfenyl chloride;Phenylsulphenyl chloride;(Chlorothio)benzene;(Chlorosulfanyl)benzene",
    "duplicated_cas_no": "",
    "SMILES": "S(Cl)C1=CC=CC=C1",
    "meta_data": {
        "InChI": "InChI=1S/C6H5ClS/c7-8-6-4-2-1-3-5-6/h1-5H",
        "InChIKey": null,
        "Canonical SMILES": "ClSC=1C=CC=CC1",
        "Molecular Formula": "C<sub>6</sub>H<sub>5</sub>ClS",
        "Molecular Mass": "144.62",
        "Boiling Point": "73-75 °C @ Press: 9 Torr",
        "Density": "1.255 g/cm³ @ Temp: 20 °C"
    }
}