{
    "cas_no": "2097-18-9",
    "key_name": "1-Ethenyl-2,8,9-trioxa-5-aza-1-silabicyclo[3.3.3]undecane",
    "cn_name": null,
    "alternate_name": "2,8,9-Trioxa-5-aza-1-silabicyclo[3.3.3]undecane, 1-ethenyl-;2,8,9-Trioxa-5-aza-1-silabicyclo[3.3.3]undecane, 1-vinyl-;1-Ethenyl-2,8,9-trioxa-5-aza-1-silabicyclo[3.3.3]undecane;Vinylsilatrane;1-Vinylsilatrane;NSC 93562;1-Vinyl-2,8,9-trioxa-5-aza-1-silabicyclo[3.3.3]undecane",
    "duplicated_cas_no": "",
    "SMILES": "C(=C)[Si]12OCCN(CCO1)CCO2",
    "meta_data": {
        "InChI": "InChI=1S/C8H15NO3Si/c1-2-13-10-6-3-9(4-7-11-13)5-8-12-13/h2H,1,3-8H2",
        "InChIKey": null,
        "Canonical SMILES": "O1CCN2CCO[Si]1(OCC2)C=C",
        "Molecular Formula": "C<sub>8</sub>H<sub>15</sub>NO<sub>3</sub>Si",
        "Molecular Mass": "201.30",
        "Melting Point": "163-165 °C"
    }
}