{
    "cas_no": "2173-57-1",
    "key_name": "2-(2-Methylpropoxy)naphthalene",
    "cn_name": "2-异丁氧基萘;2-(2-甲基丙氧基)萘;",
    "alternate_name": "Naphthalene, 2-(2-methylpropoxy)-;Naphthalene, 2-isobutoxy-;2-(2-Methylpropoxy)naphthalene;Isobutyl 2-naphthyl ether;2-Isobutoxynaphthalene;β-Naphthyl isobutyl ether",
    "duplicated_cas_no": "",
    "SMILES": "O(CC(C)C)C1=CC2=C(C=C1)C=CC=C2",
    "meta_data": {
        "InChI": "InChI=1S/C14H16O/c1-11(2)10-15-14-8-7-12-5-3-4-6-13(12)9-14/h3-9,11H,10H2,1-2H3",
        "InChIKey": null,
        "Canonical SMILES": "O(C=1C=CC=2C=CC=CC2C1)CC(C)C",
        "Molecular Formula": "C<sub>14</sub>H<sub>16</sub>O",
        "Molecular Mass": "200.28",
        "Boiling Point": "304.5 °C",
        "Melting Point": "33-33.5 °C"
    }
}