{
    "cas_no": "142-82-5",
    "key_name": "Heptane",
    "cn_name": "庚烷;正庚烷;",
    "alternate_name": "Heptane;Dipropylmethane;Heptyl hydride;<em>n</em>-Heptane;Skellysolve C;NSC 62784",
    "duplicated_cas_no": "8031-33-2;44607-13-8",
    "SMILES": "C(CCC)CCC",
    "meta_data": {
        "InChI": "InChI=1S/C7H16/c1-3-5-7-6-4-2/h3-7H2,1-2H3",
        "InChIKey": null,
        "Canonical SMILES": "CCCCCCC",
        "Molecular Formula": "C<sub>7</sub>H<sub>16</sub>",
        "Molecular Mass": "100.20",
        "Boiling Point": "98 °C",
        "Melting Point": "-91 °C",
        "Density": "0.68 g/cm³"
    }
}