{
    "cas_no": "18063-02-0",
    "key_name": "2,6-Difluorobenzoyl chloride",
    "cn_name": "2,6-二氟苯甲酰氯;",
    "alternate_name": "Benzoyl chloride, 2,6-difluoro-;2,6-Difluorobenzoyl chloride;2,6-Difluorobenzene-1-carbonyl chloride",
    "duplicated_cas_no": "",
    "SMILES": "C(Cl)(=O)C1=C(F)C=CC=C1F",
    "meta_data": {
        "InChI": "InChI=1S/C7H3ClF2O/c8-7(11)6-4(9)2-1-3-5(6)10/h1-3H",
        "InChIKey": null,
        "Canonical SMILES": "O=C(Cl)C=1C(F)=CC=CC1F",
        "Molecular Formula": "C<sub>7</sub>H<sub>3</sub>ClF<sub>2</sub>O",
        "Molecular Mass": "176.55",
        "Boiling Point": "72-77 °C @ Press: 13 Torr"
    }
}