{
    "cas_no": "486-21-5",
    "key_name": "Isofraxidin",
    "cn_name": "异嗪皮啶;异秦皮定;异榛皮定;7-羟基-6,8-二甲氧基苯并吡喃-2-酮;",
    "alternate_name": "2<em>H</em>-1-Benzopyran-2-one, 7-hydroxy-6,8-dimethoxy-;Coumarin, 7-hydroxy-6,8-dimethoxy-;Umbelliferone, 6,8-dimethoxy-;7-Hydroxy-6,8-dimethoxy-2<em>H</em>-1-benzopyran-2-one;Isofraxidin;6,8-Dimethoxy-7-hydroxycoumarin;Phytodolor;NSC 324637",
    "duplicated_cas_no": "",
    "SMILES": "O(C)C1=C2C(=CC(OC)=C1O)C=CC(=O)O2",
    "meta_data": {
        "InChI": "InChI=1S/C11H10O5/c1-14-7-5-6-3-4-8(12)16-10(6)11(15-2)9(7)13/h3-5,13H,1-2H3",
        "InChIKey": null,
        "Canonical SMILES": "O=C1OC=2C(OC)=C(O)C(OC)=CC2C=C1",
        "Molecular Formula": "C<sub>11</sub>H<sub>10</sub>O<sub>5</sub>",
        "Molecular Mass": "222.19",
        "Melting Point": "148-149 °C"
    }
}