{
    "cas_no": "1779-11-9",
    "key_name": "7-Bromo-3-hydroxy-2-naphthalenecarboxylic acid",
    "cn_name": "3-羟基-7-溴-2-萘甲酸;",
    "alternate_name": "2-Naphthalenecarboxylic acid, 7-bromo-3-hydroxy-;2-Naphthoic acid, 7-bromo-3-hydroxy-;7-Bromo-3-hydroxy-2-naphthalenecarboxylic acid;7-Bromo-3-hydroxy-2-naphthoic acid",
    "duplicated_cas_no": "",
    "SMILES": "C(O)(=O)C1=CC2=C(C=C1O)C=CC(Br)=C2",
    "meta_data": {
        "InChI": "InChI=1S/C11H7BrO3/c12-8-2-1-6-5-10(13)9(11(14)15)4-7(6)3-8/h1-5,13H,(H,14,15)",
        "InChIKey": null,
        "Canonical SMILES": "O=C(O)C=1C=C2C=C(Br)C=CC2=CC1O",
        "Molecular Formula": "C<sub>11</sub>H<sub>7</sub>BrO<sub>3</sub>",
        "Molecular Mass": "267.08",
        "Melting Point": "262 °C"
    }
}