{
    "cas_no": "5445-29-4",
    "key_name": "Octanoic acid, 2-bromo-, ethyl ester",
    "cn_name": null,
    "alternate_name": "Octanoic acid, 2-bromo-, ethyl ester;Ethyl 2-bromooctanoate;Ethyl α-bromocaprylate;α-Bromocaprylic acid ethyl ester;NSC 21989;2-Bromo-octanoic acid ethyl ester",
    "duplicated_cas_no": "138286-76-7",
    "SMILES": "C(C(OCC)=O)(CCCCCC)Br",
    "meta_data": {
        "InChI": "InChI=1S/C10H19BrO2/c1-3-5-6-7-8-9(11)10(12)13-4-2/h9H,3-8H2,1-2H3",
        "InChIKey": null,
        "Canonical SMILES": "O=C(OCC)C(Br)CCCCCC",
        "Molecular Formula": "C<sub>10</sub>H<sub>19</sub>BrO<sub>2</sub>",
        "Molecular Mass": "251.16",
        "Boiling Point": "137-140 °C @ Press: 25 Torr"
    }
}