{
    "cas_no": "4028-63-1",
    "key_name": "Iodomesitylene",
    "cn_name": "2,4,6-三甲基碘苯;2-碘-1,3,5-三甲基苯;",
    "alternate_name": "Benzene, 2-iodo-1,3,5-trimethyl-;Mesitylene, 2-iodo-;2-Iodo-1,3,5-trimethylbenzene;2-Iodomesitylene;1-Iodo-2,4,6-trimethylbenzene;Iodomesitylene;2,4,6-Trimethyliodobenzene;2,4,6-Trimethylphenyl iodide;Mesityl iodide;1,3,5-Trimethyl-2-iodobenzene;Iodo-2,4,6-trimethylbenzene;NSC 68044",
    "duplicated_cas_no": "",
    "SMILES": "IC1=C(C)C=C(C)C=C1C",
    "meta_data": {
        "InChI": "InChI=1S/C9H11I/c1-6-4-7(2)9(10)8(3)5-6/h4-5H,1-3H3",
        "InChIKey": null,
        "Canonical SMILES": "IC=1C(=CC(=CC1C)C)C",
        "Molecular Formula": "C<sub>9</sub>H<sub>11</sub>I",
        "Molecular Mass": "246.09",
        "Melting Point": "30.5 °C"
    }
}