{
    "cas_no": "20834-61-1",
    "key_name": "2-Bromo-4,6-di-<em>tert</em>-butylphenol",
    "cn_name": "2-溴-4,6-二-叔-丁基苯酚;",
    "alternate_name": "Phenol, 2-bromo-4,6-bis(1,1-dimethylethyl)-;Phenol, 2-bromo-4,6-di-<em>tert</em>-butyl-;2-Bromo-4,6-bis(1,1-dimethylethyl)phenol;2-Bromo-4,6-di-<em>tert</em>-butylphenol;2-Bromo-4,6-bis(<em>tert</em>-butyl)phenol;4,6-Di(<em>tert</em>-butyl)-2-bromophenol;6-Bromo-2,4-<em>tert</em>-butylphenol;2-Bromo-4,6-ditert-butylphenol",
    "duplicated_cas_no": "",
    "SMILES": "C(C)(C)(C)C1=CC(C(C)(C)C)=CC(Br)=C1O",
    "meta_data": {
        "InChI": "InChI=1S/C14H21BrO/c1-13(2,3)9-7-10(14(4,5)6)12(16)11(15)8-9/h7-8,16H,1-6H3",
        "InChIKey": null,
        "Canonical SMILES": "BrC=1C=C(C=C(C1O)C(C)(C)C)C(C)(C)C",
        "Molecular Formula": "C<sub>14</sub>H<sub>21</sub>BrO",
        "Molecular Mass": "285.22",
        "Boiling Point": "141-142 °C",
        "Melting Point": "59-61 °C"
    }
}