{
    "cas_no": "63155-11-3",
    "key_name": "Ethyl 2-pyrimidineacetate",
    "cn_name": null,
    "alternate_name": "2-Pyrimidineacetic acid, ethyl ester;Ethyl 2-pyrimidineacetate;Ethyl 2-(pyrimidin-2-yl)acetate",
    "duplicated_cas_no": "",
    "SMILES": "C(C(OCC)=O)C=1N=CC=CN1",
    "meta_data": {
        "InChI": "InChI=1S/C8H10N2O2/c1-2-12-8(11)6-7-9-4-3-5-10-7/h3-5H,2,6H2,1H3",
        "InChIKey": null,
        "Canonical SMILES": "O=C(OCC)CC1=NC=CC=N1",
        "Molecular Formula": "C<sub>8</sub>H<sub>10</sub>N<sub>2</sub>O<sub>2</sub>",
        "Molecular Mass": "166.18",
        "Boiling Point": "96-98 °C @ Press: 3 Torr"
    }
}