{
    "cas_no": "192-97-2",
    "key_name": "Benzo[<em>e</em>]pyrene",
    "cn_name": "苯并[e]芘;",
    "alternate_name": "Benzo[<em>e</em>]pyrene;1,2-Benzpyrene;1,2-Benzopyrene;4,5-Benzpyrene;4,5-Benzopyrene;NSC 89273",
    "duplicated_cas_no": "",
    "SMILES": "C12=C3C=4C=5C(C1=CC=CC2=CC=C3C=CC4)=CC=CC5",
    "meta_data": {
        "InChI": "InChI=1S/C20H12/c1-2-8-16-15(7-1)17-9-3-5-13-11-12-14-6-4-10-18(16)20(14)19(13)17/h1-12H",
        "InChIKey": null,
        "Canonical SMILES": "C1=CC=C2C(=C1)C3=CC=CC4=CC=C5C=CC=C2C5=C43",
        "Molecular Formula": "C<sub>20</sub>H<sub>12</sub>",
        "Molecular Mass": "252.31",
        "Boiling Point": "493 °C",
        "Melting Point": "178-179 °C"
    }
}