{
    "cas_no": "603-35-0",
    "key_name": "Triphenylphosphine",
    "cn_name": "三苯基膦;三苯膦;",
    "alternate_name": "Phosphine, triphenyl-;Triphenylphosphine;Triphenylphosphorus;Triphenylphosphide;PP 360;P 100;P 100 (accelerator);JC 263;Triphenylphosphane;TPP;NSC 10;NSC 215203;EPCAT-P;PP 200;PPh<sub>3</sub>;Hokko TPP;T 0519;Triphenyl phosphine",
    "duplicated_cas_no": "112771-47-8;630403-25-7;1198579-87-1",
    "SMILES": "P(C1=CC=CC=C1)(C2=CC=CC=C2)C3=CC=CC=C3",
    "meta_data": {
        "InChI": "InChI=1S/C18H15P/c1-4-10-16(11-5-1)19(17-12-6-2-7-13-17)18-14-8-3-9-15-18/h1-15H",
        "InChIKey": null,
        "Canonical SMILES": "C=1C=CC(=CC1)P(C=2C=CC=CC2)C=3C=CC=CC3",
        "Molecular Formula": "C<sub>18</sub>H<sub>15</sub>P",
        "Molecular Mass": "262.29",
        "Boiling Point": "&gt;360 °C",
        "Melting Point": "80.5 °C",
        "Density": "1.075 g/cm³ @ Temp: 80 °C"
    }
}