{
    "cas_no": "17392-68-6",
    "key_name": "<em>N</em>-(2-Methoxyphenyl)maleimide",
    "cn_name": null,
    "alternate_name": "1<em>H</em>-Pyrrole-2,5-dione, 1-(2-methoxyphenyl)-;Maleimide, <em>N</em>-(<em>o</em>-methoxyphenyl)-;1-(2-Methoxyphenyl)-1<em>H</em>-pyrrole-2,5-dione;<em>N</em>-<em>o</em>-Methoxyphenylmaleimide;<em>N</em>-<em>o</em>-Anisylmaleimide;<em>N</em>-(2-Methoxyphenyl)maleimide;NSC 144974;1-(2-Methoxyphenyl)-2,5-dihydro-1<em>H</em>-pyrrole-2,5-dione;1-(2-Methoxyphenyl)pyrrole-2,5-dione",
    "duplicated_cas_no": "",
    "SMILES": "O(C)C1=C(C=CC=C1)N2C(=O)C=CC2=O",
    "meta_data": {
        "InChI": "InChI=1S/C11H9NO3/c1-15-9-5-3-2-4-8(9)12-10(13)6-7-11(12)14/h2-7H,1H3",
        "InChIKey": null,
        "Canonical SMILES": "O=C1C=CC(=O)N1C=2C=CC=CC2OC",
        "Molecular Formula": "C<sub>11</sub>H<sub>9</sub>NO<sub>3</sub>",
        "Molecular Mass": "203.19",
        "Melting Point": "119-120 °C"
    }
}