{
    "cas_no": "619-22-7",
    "key_name": "3-(Dimethylamino)benzaldehyde",
    "cn_name": "间二甲氨基苯甲醛;",
    "alternate_name": "Benzaldehyde, 3-(dimethylamino)-;Benzaldehyde, <em>m</em>-(dimethylamino)-;3-(Dimethylamino)benzaldehyde;<em>m</em>-(Dimethylamino)benzaldehyde;3-(<em>N</em>,<em>N</em>-Dimethylamino)benzaldehyde",
    "duplicated_cas_no": "",
    "SMILES": "N(C)(C)C1=CC(C=O)=CC=C1",
    "meta_data": {
        "InChI": "InChI=1S/C9H11NO/c1-10(2)9-5-3-4-8(6-9)7-11/h3-7H,1-2H3",
        "InChIKey": null,
        "Canonical SMILES": "O=CC1=CC=CC(=C1)N(C)C",
        "Molecular Formula": "C<sub>9</sub>H<sub>11</sub>NO",
        "Molecular Mass": "149.19",
        "Boiling Point": "137.5-138 °C"
    }
}