{
    "cas_no": "164298-23-1",
    "key_name": "Methanaminium, <em>N</em>-[(dimethylamino)fluoromethylene]-<em>N</em>-methyl-, hexafluorophosphate(1-) (1:1)",
    "cn_name": null,
    "alternate_name": "Methanaminium, <em>N</em>-[(dimethylamino)fluoromethylene]-<em>N</em>-methyl-, hexafluorophosphate(1-) (1:1);Methanaminium, <em>N</em>-[(dimethylamino)fluoromethylene]-<em>N</em>-methyl-, hexafluorophosphate(1-);Tetramethylfluoroformamidinium hexafluorophosphate;TFFH;Fluoro-<em>N</em>,<em>N</em>,<em>N</em>′,<em>N</em>′-tetramethylformamidinium hexafluorophosphate;[(Dimethylamino)(fluoro)methylidene]dimethylazanium; hexafluoro-λ5-phosphanuide;Nitrogen(2+), [(fluoroamino)carbonyl]tetramethyl-, hexafluorophosphate(1-) (1:2)",
    "duplicated_cas_no": "2448366-74-1",
    "SMILES": "C(N(C)C)(=[N+](C)C)F.[P+5]([F-])([F-])([F-])([F-])([F-])[F-]",
    "meta_data": {
        "InChI": "InChI=1S/C5H12FN2.F6P/c1-7(2)5(6)8(3)4;1-7(2,3,4,5)6/h1-4H3;/q+1;-1",
        "InChIKey": null,
        "Canonical SMILES": "FC(N(C)C)=[N+](C)C.[F-][P+5]([F-])([F-])([F-])([F-])[F-]",
        "Molecular Formula": "C<sub>5</sub>H<sub>12</sub>FN<sub>2</sub>.F<sub>6</sub>P",
        "Molecular Mass": "",
        "Melting Point": "110 °C"
    }
}