{
    "cas_no": "616-09-1",
    "key_name": "Propyl lactate",
    "cn_name": null,
    "alternate_name": "Propanoic acid, 2-hydroxy-, propyl ester;Lactic acid, propyl ester;<em>n</em>-Propyl lactate;Propyl 2-hydroxypropanoate;Propyl lactate;(±)-<em>n</em>-Propyl lactate;Purasolv NPL;Propyl 2-hydroxypropionate;2-Hydroxypropanoic acid propyl ester",
    "duplicated_cas_no": "129171-92-2",
    "SMILES": "C(C(C)O)(OCCC)=O",
    "meta_data": {
        "InChI": "InChI=1S/C6H12O3/c1-3-4-9-6(8)5(2)7/h5,7H,3-4H2,1-2H3",
        "InChIKey": null,
        "Canonical SMILES": "O=C(OCCC)C(O)C",
        "Molecular Formula": "C<sub>6</sub>H<sub>12</sub>O<sub>3</sub>",
        "Molecular Mass": "132.16",
        "Boiling Point": "61 °C @ Press: 10 Torr",
        "Density": "1.0035 g/cm³ @ Temp: 20 °C"
    }
}