{
    "cas_no": "2971-31-5",
    "key_name": "Oxindole-3-acetic acid",
    "cn_name": null,
    "alternate_name": "1<em>H</em>-Indole-3-acetic acid, 2,3-dihydro-2-oxo-;3-Indolineacetic acid, 2-oxo-;2,3-Dihydro-2-oxo-1<em>H</em>-indole-3-acetic acid;Oxindole-3-acetic acid;2-Oxo-3-indolineacetic acid;(±)-2,3-Dihydro-2-oxoindole-3-acetic acid;(±)-2-Oxindoline-3-acetic acid;(±)-2-Oxo-3-indolineacetic acid;2-(2-Oxoindolin-3-yl)acetic acid;(2-Oxo-2,3-dihydro-1<em>H</em>-indol-3-yl)acetic acid;2-(2-Oxo-1,3-dihydroindol-3-yl)acetic acid;2-(2-Oxo-2,3-dihydro-1<em>H</em>-indol-3-yl)acetic acid",
    "duplicated_cas_no": "99102-28-0",
    "SMILES": "C(C(O)=O)C1C=2C(NC1=O)=CC=CC2",
    "meta_data": {
        "InChI": "InChI=1S/C10H9NO3/c12-9(13)5-7-6-3-1-2-4-8(6)11-10(7)14/h1-4,7H,5H2,(H,11,14)(H,12,13)",
        "InChIKey": null,
        "Canonical SMILES": "O=C(O)CC1C(=O)NC=2C=CC=CC21",
        "Molecular Formula": "C<sub>10</sub>H<sub>9</sub>NO<sub>3</sub>",
        "Molecular Mass": "191.18",
        "Melting Point": "218-219 °C"
    }
}