{
    "cas_no": "508233-74-7",
    "key_name": "Vortioxetine",
    "cn_name": null,
    "alternate_name": "Piperazine, 1-[2-[(2,4-dimethylphenyl)thio]phenyl]-;1-[2-[(2,4-Dimethylphenyl)thio]phenyl]piperazine;Vortioxetine;Lu AA 21004;1-[2-(2,4-Dimethylphenylsulfanyl)phenyl]piperazine;Brintellix;Trintellix",
    "duplicated_cas_no": "",
    "SMILES": "S(C1=C(C=CC=C1)N2CCNCC2)C3=C(C)C=C(C)C=C3",
    "meta_data": {
        "InChI": "InChI=1S/C18H22N2S/c1-14-7-8-17(15(2)13-14)21-18-6-4-3-5-16(18)20-11-9-19-10-12-20/h3-8,13,19H,9-12H2,1-2H3",
        "InChIKey": null,
        "Canonical SMILES": "S(C=1C=CC=CC1N2CCNCC2)C3=CC=C(C=C3C)C",
        "Molecular Formula": "C<sub>18</sub>H<sub>22</sub>N<sub>2</sub>S",
        "Molecular Mass": "298.45",
        "Melting Point": "100 °C"
    }
}