{
    "cas_no": "113118-82-4",
    "key_name": "5-Chloro-3-pyridinecarboxaldehyde",
    "cn_name": "5-氯吡啶-3-甲醛;",
    "alternate_name": "3-Pyridinecarboxaldehyde, 5-chloro-;5-Chloro-3-pyridinecarboxaldehyde;5-Chloro-3-pyridinecarbaldehyde;3-Chloro-5-formylpyridine;5-Chloronicotinaldehyde",
    "duplicated_cas_no": "",
    "SMILES": "C(=O)C=1C=C(Cl)C=NC1",
    "meta_data": {
        "InChI": "InChI=1S/C6H4ClNO/c7-6-1-5(4-9)2-8-3-6/h1-4H",
        "InChIKey": null,
        "Canonical SMILES": "O=CC=1C=NC=C(Cl)C1",
        "Molecular Formula": "C<sub>6</sub>H<sub>4</sub>ClNO",
        "Molecular Mass": "141.56",
        "Melting Point": "69-70 °C"
    }
}