{
    "cas_no": "20332-10-9",
    "key_name": "Diphenylthioxostannane",
    "cn_name": "二苯基硫化锡;",
    "alternate_name": "Stannane, diphenylthioxo-;Diphenyltin sulfide;Tin, diphenylthioxo-;Diphenylthioxostannane",
    "duplicated_cas_no": "",
    "SMILES": "[Sn](=S)(C1=CC=CC=C1)C2=CC=CC=C2",
    "meta_data": {
        "InChI": "InChI=1S/2C6H5.S.Sn/c2*1-2-4-6-5-3-1;;/h2*1-5H;;",
        "InChIKey": null,
        "Canonical SMILES": "S=[Sn](C=1C=CC=CC1)C=2C=CC=CC2",
        "Molecular Formula": "C<sub>12</sub>H<sub>10</sub>SSn",
        "Molecular Mass": "304.98",
        "Melting Point": "181-182 °C"
    }
}