{
    "cas_no": "53-06-5",
    "key_name": "Cortisone",
    "cn_name": "可的松;肾上腺皮质激素;17-羟-11脱氢皮质(甾)酮;",
    "alternate_name": "Pregn-4-ene-3,11,20-trione, 17,21-dihydroxy-;Cortisone;17,21-Dihydroxypregn-4-ene-3,11,20-trione;Adrenalex;Compound E (cortisone);Cortisate;Cortivite;Cortogen;Cortone;11-Dehydro-17-hydroxycorticosterone;17α,21-Dihydroxy-4-pregnene-3,11,20-trione;17-Hydroxy-11-dehydrocorticosterone;17α-Hydroxy-11-dehydrocorticosterone;KE;Kendall's compound E;Pregn-4-en-17α,21-diol-3,11,20-trione;Δ<sup>4</sup>-Pregnene-17α,21-diol-3,11,20-trione;Reichstein's substance Fa;Wintersteiner's compound F;17α,21β-Dihydroxy-4-pregnene-3,11,20-trione;NSC 9703;14: PN: US20220380460 SEQID: 15 claimed sequence;MeSH ID: D003348",
    "duplicated_cas_no": "478614-18-5",
    "SMILES": "C[C@@]12[C@]([C@]3([C@@]([C@]4(C)C(CC3)=CC(=O)CC4)(C(=O)C1)[H])[H])(CC[C@@]2(C(CO)=O)O)[H]",
    "meta_data": {
        "InChI": "InChI=1S/C21H28O5/c1-19-7-5-13(23)9-12(19)3-4-14-15-6-8-21(26,17(25)11-22)20(15,2)10-16(24)18(14)19/h9,14-15,18,22,26H,3-8,10-11H2,1-2H3/t14-,15-,18+,19-,20-,21-/m0/s1",
        "InChIKey": null,
        "Canonical SMILES": "O=C1C=C2CCC3C(C(=O)CC4(C)C3CCC4(O)C(=O)CO)C2(C)CC1",
        "Molecular Formula": "C<sub>21</sub>H<sub>28</sub>O<sub>5</sub>",
        "Molecular Mass": "360.44",
        "Melting Point": "222 °C"
    }
}