{
    "cas_no": "117-37-3",
    "key_name": "Anisindione",
    "cn_name": "茴茚二酮;茴茚二酮;",
    "alternate_name": "1<em>H</em>-Indene-1,3(2<em>H</em>)-dione, 2-(4-methoxyphenyl)-;1,3-Indandione, 2-(<em>p</em>-methoxyphenyl)-;2-(4-Methoxyphenyl)-1<em>H</em>-indene-1,3(2<em>H</em>)-dione;Anisindione;2-<em>p</em>-Anisyl-1,3-indandione;2-(<em>p</em>-Methoxyphenyl)-1,3-indandione;Miradon;2-(4-Methoxyphenyl)-1,3-indandione;Andion;SPE 2792;Unidone;2-(4-Methoxy-phenyl)-indane-1,3-dione;2-(4-Methoxyphenyl)indene-1,3-dione;2-(4-Methoxyphenyl)-2,3-dihydro-1<em>H</em>-indene-1,3-dione",
    "duplicated_cas_no": "6135-01-9",
    "SMILES": "O=C1C(C(=O)C=2C1=CC=CC2)C3=CC=C(OC)C=C3",
    "meta_data": {
        "InChI": "InChI=1S/C16H12O3/c1-19-11-8-6-10(7-9-11)14-15(17)12-4-2-3-5-13(12)16(14)18/h2-9,14H,1H3",
        "InChIKey": null,
        "Canonical SMILES": "O=C1C=2C=CC=CC2C(=O)C1C3=CC=C(OC)C=C3",
        "Molecular Formula": "C<sub>16</sub>H<sub>12</sub>O<sub>3</sub>",
        "Molecular Mass": "252.26",
        "Melting Point": "156-157 °C"
    }
}