{
    "cas_no": "49745-95-1",
    "key_name": "Dobutamine hydrochloride",
    "cn_name": "盐酸多巴酚丁胺;",
    "alternate_name": "1,2-Benzenediol, 4-[2-[[3-(4-hydroxyphenyl)-1-methylpropyl]amino]ethyl]-, hydrochloride (1:1);1,2-Benzenediol, 4-[2-[[3-(4-hydroxyphenyl)-1-methylpropyl]amino]ethyl]-, hydrochloride;Dobutamine hydrochloride;<em>dl</em>-Dobutamine hydrochloride;Dobutrex;<span class=\"text-smallcaps\">DL</span>-Dobutamine hydrochloride;Inotrex;NSC 299583",
    "duplicated_cas_no": "52663-81-7",
    "SMILES": "C(CNC(CCC1=CC=C(O)C=C1)C)C2=CC(O)=C(O)C=C2.Cl",
    "meta_data": {
        "InChI": "InChI=1S/C18H23NO3.ClH/c1-13(2-3-14-4-7-16(20)8-5-14)19-11-10-15-6-9-17(21)18(22)12-15;/h4-9,12-13,19-22H,2-3,10-11H2,1H3;1H",
        "InChIKey": null,
        "Canonical SMILES": "Cl.OC1=CC=C(C=C1)CCC(NCCC2=CC=C(O)C(O)=C2)C",
        "Molecular Formula": "C<sub>18</sub>H<sub>23</sub>NO<sub>3</sub>.ClH",
        "Molecular Mass": "",
        "Melting Point": "184-186 °C"
    }
}