{
    "cas_no": "348-32-3",
    "key_name": "Ethyl 4-fluoro-1<em>H</em>-indole-2-carboxylate",
    "cn_name": null,
    "alternate_name": "1<em>H</em>-Indole-2-carboxylic acid, 4-fluoro-, ethyl ester;2-Indolecarboxylic acid, 4-fluoro-, ethyl ester;Ethyl 4-fluoro-1<em>H</em>-indole-2-carboxylate",
    "duplicated_cas_no": "",
    "SMILES": "FC1=C2C(NC(C(OCC)=O)=C2)=CC=C1",
    "meta_data": {
        "InChI": "InChI=1S/C11H10FNO2/c1-2-15-11(14)10-6-7-8(12)4-3-5-9(7)13-10/h3-6,13H,2H2,1H3",
        "InChIKey": null,
        "Canonical SMILES": "O=C(OCC)C1=CC=2C(F)=CC=CC2N1",
        "Molecular Formula": "C<sub>11</sub>H<sub>10</sub>FNO<sub>2</sub>",
        "Molecular Mass": "207.20",
        "Melting Point": "121 °C"
    }
}