{
    "cas_no": "62458-96-2",
    "key_name": "5,6,7,8-Tetrahydro-7-(phenylmethyl)pyrido[3,4-<em>d</em>]pyrimidin-4(3<em>H</em>)-one",
    "cn_name": null,
    "alternate_name": "Pyrido[3,4-<em>d</em>]pyrimidin-4(3<em>H</em>)-one, 5,6,7,8-tetrahydro-7-(phenylmethyl)-;Pyrido[3,4-<em>d</em>]pyrimidin-4(1<em>H</em>)-one, 5,6,7,8-tetrahydro-7-(phenylmethyl)-;5,6,7,8-Tetrahydro-7-(phenylmethyl)pyrido[3,4-<em>d</em>]pyrimidin-4(3<em>H</em>)-one;7-Benzyl-5,6,7,8-tetrahydro-3<em>H</em>-pyrido[3,4-<em>d</em>]pyrimidin-4-one;7-Benzyl-5,6,7,8-tetrahydropyrido[3,4-<em>d</em>]pyrimidin-4(3<em>H</em>)-one",
    "duplicated_cas_no": "",
    "SMILES": "O=C1C2=C(CN(CC3=CC=CC=C3)CC2)NC=N1",
    "meta_data": {
        "InChI": "InChI=1S/C14H15N3O/c18-14-12-6-7-17(9-13(12)15-10-16-14)8-11-4-2-1-3-5-11/h1-5,10H,6-9H2,(H,15,16,18)",
        "InChIKey": null,
        "Canonical SMILES": "O=C1N=CNC2=C1CCN(CC=3C=CC=CC3)C2",
        "Molecular Formula": "C<sub>14</sub>H<sub>15</sub>N<sub>3</sub>O",
        "Molecular Mass": "241.29",
        "Melting Point": "198 °C"
    }
}