{
    "cas_no": "607742-69-8",
    "key_name": "Intepirdine",
    "cn_name": null,
    "alternate_name": "Quinoline, 3-(phenylsulfonyl)-8-(1-piperazinyl)-;3-(Phenylsulfonyl)-8-(1-piperazinyl)quinoline;3-Phenylsulfonyl-8-(piperazin-1-yl)quinoline;SB 742457;GSK 742457;Intepirdine;RVT 101",
    "duplicated_cas_no": "1000202-33-4;1176290-11-1",
    "SMILES": "S(=O)(=O)(C1=CC2=C(C(=CC=C2)N3CCNCC3)N=C1)C4=CC=CC=C4",
    "meta_data": {
        "InChI": "InChI=1S/C19H19N3O2S/c23-25(24,16-6-2-1-3-7-16)17-13-15-5-4-8-18(19(15)21-14-17)22-11-9-20-10-12-22/h1-8,13-14,20H,9-12H2",
        "InChIKey": null,
        "Canonical SMILES": "O=S(=O)(C=1C=CC=CC1)C2=CN=C3C(C=CC=C3N4CCNCC4)=C2",
        "Molecular Formula": "C<sub>19</sub>H<sub>19</sub>N<sub>3</sub>O<sub>2</sub>S",
        "Molecular Mass": "353.44",
        "Melting Point": "183-185 °C"
    }
}