{
    "cas_no": "6406-74-2",
    "key_name": "4-Amino-<em>N</em>,<em>N</em>-dimethylbenzenemethanamine",
    "cn_name": null,
    "alternate_name": "Benzenemethanamine, 4-amino-<em>N</em>,<em>N</em>-dimethyl-;Toluene-α,4-diamine, <em>N</em><sup>α</sup>,<em>N</em><sup>α</sup>-dimethyl-;4-Amino-<em>N</em>,<em>N</em>-dimethylbenzenemethanamine;<em>N</em>-(<em>p</em>-Aminobenzyl)dimethylamine;4-Amino-<em>N</em>,<em>N</em>-dimethylbenzylamine;4-(Dimethylaminomethyl)aniline;4-[(<em>N</em>,<em>N</em>-Dimethylamino)methyl]aniline;NSC 207808;4-(Dimethylaminomethyl)phenylamine",
    "duplicated_cas_no": "",
    "SMILES": "C(N(C)C)C1=CC=C(N)C=C1",
    "meta_data": {
        "InChI": "InChI=1S/C9H14N2/c1-11(2)7-8-3-5-9(10)6-4-8/h3-6H,7,10H2,1-2H3",
        "InChIKey": null,
        "Canonical SMILES": "NC1=CC=C(C=C1)CN(C)C",
        "Molecular Formula": "C<sub>9</sub>H<sub>14</sub>N<sub>2</sub>",
        "Molecular Mass": "150.22",
        "Boiling Point": "221-223 °C"
    }
}