{
    "cas_no": "120923-37-7",
    "key_name": "Amidosulfuron",
    "cn_name": "酰嘧磺隆;1-(4,6-二甲氧基-2-嘧啶基)-3-(N-甲基甲磺酰胺磺酰基)-脲;",
    "alternate_name": "3,5-Dithia-2,4-diazahexanamide, <em>N</em>-(4,6-dimethoxy-2-pyrimidinyl)-4-methyl-, 3,3,5,5-tetraoxide;2,4-Dithia-3,5-diazahexan-6-amide, <em>N</em>-(4,6-dimethoxy-2-pyrimidinyl)-3-methyl-, 2,2,4,4-tetraoxide;Cratil;Amidosulfuron;Grodyl;Gratil;HOE 075032;Hoestar;Adret",
    "duplicated_cas_no": "",
    "SMILES": "N(C(NS(N(S(C)(=O)=O)C)(=O)=O)=O)C=1N=C(OC)C=C(OC)N1",
    "meta_data": {
        "InChI": "InChI=1S/C9H15N5O7S2/c1-14(22(4,16)17)23(18,19)13-9(15)12-8-10-6(20-2)5-7(11-8)21-3/h5H,1-4H3,(H2,10,11,12,13,15)",
        "InChIKey": null,
        "Canonical SMILES": "O=C(NC=1N=C(OC)C=C(N1)OC)NS(=O)(=O)N(C)S(=O)(=O)C",
        "Molecular Formula": "C<sub>9</sub>H<sub>15</sub>N<sub>5</sub>O<sub>7</sub>S<sub>2</sub>",
        "Molecular Mass": "369.37",
        "Melting Point": "161.5 °C"
    }
}