{
    "cas_no": "2051-95-8",
    "key_name": "3-Benzoylpropionic acid",
    "cn_name": "3-苯甲酰丙酸;",
    "alternate_name": "Benzenebutanoic acid, γ-oxo-;Propionic acid, 3-benzoyl-;γ-Oxobenzenebutanoic acid;β-Benzoylpropionic acid;Propanoic acid, 3-benzoyl-;3-Benzoylpropanoic acid;4-Oxo-4-phenylbutyric acid;4-Oxo-4-phenylbutanoic acid;3-Benzoylpropionic acid;4-Phenyl-4-oxobutanoic acid;NSC 2092;NSC 229040;NSC 51010",
    "duplicated_cas_no": "",
    "SMILES": "C(CCC(O)=O)(=O)C1=CC=CC=C1",
    "meta_data": {
        "InChI": "InChI=1S/C10H10O3/c11-9(6-7-10(12)13)8-4-2-1-3-5-8/h1-5H,6-7H2,(H,12,13)",
        "InChIKey": null,
        "Canonical SMILES": "O=C(O)CCC(=O)C=1C=CC=CC1",
        "Molecular Formula": "C<sub>10</sub>H<sub>10</sub>O<sub>3</sub>",
        "Molecular Mass": "178.18",
        "Melting Point": "117-119 °C"
    }
}