{
    "cas_no": "5399-68-8",
    "key_name": "Benzaldehyde, 2,4-dihydroxy-, oxime",
    "cn_name": "2,4-二羟基苯甲醛肟;",
    "alternate_name": "Benzaldehyde, 2,4-dihydroxy-, oxime;β-Resorcylaldehyde, oxime;β-Resorcylaldoxime;2,4-Dihydroxybenzaldoxime;2,4-Dihydroxybenzaldehyde oxime;NSC 4870",
    "duplicated_cas_no": "",
    "SMILES": "C(=NO)C1=C(O)C=C(O)C=C1",
    "meta_data": {
        "InChI": "InChI=1S/C7H7NO3/c9-6-2-1-5(4-8-11)7(10)3-6/h1-4,9-11H",
        "InChIKey": null,
        "Canonical SMILES": "ON=CC1=CC=C(O)C=C1O",
        "Molecular Formula": "C<sub>7</sub>H<sub>7</sub>NO<sub>3</sub>",
        "Molecular Mass": "153.14",
        "Melting Point": "126-128 °C"
    }
}