{
    "cas_no": "1696-17-9",
    "key_name": "<em>N</em>,<em>N</em>-Diethylbenzamide",
    "cn_name": null,
    "alternate_name": "Benzamide, <em>N</em>,<em>N</em>-diethyl-;<em>N</em>,<em>N</em>-Diethylbenzamide;Benzoic acid diethylamide;R 2;Benzoyldiethylamine;R 2 (insect repellent);Benzoic acid <em>N</em>,<em>N</em>-diethylamide;Rebemid;Rebemide;NSC 16060",
    "duplicated_cas_no": "",
    "SMILES": "C(N(CC)CC)(=O)C1=CC=CC=C1",
    "meta_data": {
        "InChI": "InChI=1S/C11H15NO/c1-3-12(4-2)11(13)10-8-6-5-7-9-10/h5-9H,3-4H2,1-2H3",
        "InChIKey": null,
        "Canonical SMILES": "O=C(C=1C=CC=CC1)N(CC)CC",
        "Molecular Formula": "C<sub>11</sub>H<sub>15</sub>NO",
        "Molecular Mass": "177.24",
        "Boiling Point": "130-132 °C @ Press: 9 Torr",
        "Melting Point": "127-128 °C",
        "Density": "1.010 g/cm³ @ Temp: 20 °C"
    }
}