{
    "cas_no": "592-04-1",
    "key_name": "Mercuric cyanide",
    "cn_name": "氰化汞;氰化高汞;",
    "alternate_name": "Mercury cyanide (Hg(CN)<sub>2</sub>);Mercuric cyanide;Mercury dicyanide;Dicyanomercury;Cianurina;Mercury(II) cyanide;Mercuric cyanide (Hg(CN)<sub>2</sub>)",
    "duplicated_cas_no": "15313-18-5;25587-94-4;1327160-06-4",
    "SMILES": "[Hg](C#N)C#N",
    "meta_data": {
        "InChI": "InChI=1S/2CN.Hg/c2*1-2;",
        "InChIKey": null,
        "Canonical SMILES": "N#C[Hg]C#N",
        "Molecular Formula": "C<sub>2</sub>HgN<sub>2</sub>",
        "Molecular Mass": "",
        "Melting Point": "320 °C (decomp)",
        "Density": "4.00 g/cm³ @ Temp: 20 °C"
    }
}