{
    "cas_no": "21615-34-9",
    "key_name": "2-Methoxybenzoyl chloride",
    "cn_name": null,
    "alternate_name": "Benzoyl chloride, 2-methoxy-;<em>o</em>-Anisoyl chloride;2-Methoxybenzoyl chloride;<em>o</em>-Methoxybenzoyl chloride;2-Anisoyl chloride;<em>ortho</em>-Anisoyl chloride;2-Methoxybenzoic acid chloride;2-(Methyloxy)benzoyl chloride;2-Methoxybenzene-1-carbonyl chloride",
    "duplicated_cas_no": "",
    "SMILES": "O(C)C1=C(C(Cl)=O)C=CC=C1",
    "meta_data": {
        "InChI": "InChI=1S/C8H7ClO2/c1-11-7-5-3-2-4-6(7)8(9)10/h2-5H,1H3",
        "InChIKey": null,
        "Canonical SMILES": "O=C(Cl)C=1C=CC=CC1OC",
        "Molecular Formula": "C<sub>8</sub>H<sub>7</sub>ClO<sub>2</sub>",
        "Molecular Mass": "170.59",
        "Boiling Point": "128 °C @ Press: 11 Torr"
    }
}