{
    "cas_no": "4627-10-5",
    "key_name": "4,4,6-Trimethyl-2-vinyl-1,3,2-dioxaborinane",
    "cn_name": null,
    "alternate_name": "1,3,2-Dioxaborinane, 2-ethenyl-4,4,6-trimethyl-;Etheneboronic acid, cyclic 1,1,3-trimethyltrimethylene ester;1,3,2-Dioxaborinane, 4,4,6-trimethyl-2-vinyl-;2,4-Pentanediol, 2-methyl-, cyclic etheneboronate;2-Ethenyl-4,4,6-trimethyl-1,3,2-dioxaborinane;4,4,6-Trimethyl-2-vinyl-1,3,2-dioxaborinane",
    "duplicated_cas_no": "2042216-73-7;2829349-78-0",
    "SMILES": "C(=C)B1OC(C)(C)CC(C)O1",
    "meta_data": {
        "InChI": "InChI=1S/C8H15BO2/c1-5-9-10-7(2)6-8(3,4)11-9/h5,7H,1,6H2,2-4H3",
        "InChIKey": null,
        "Canonical SMILES": "O1B(OC(C)(C)CC1C)C=C",
        "Molecular Formula": "C<sub>8</sub>H<sub>15</sub>BO<sub>2</sub>",
        "Molecular Mass": "154.01",
        "Boiling Point": "69-70 °C @ Press: 35 Torr"
    }
}