{
    "cas_no": "13360-45-7",
    "key_name": "Chlorbromuron",
    "cn_name": "绿秀隆;氯溴隆;3-(4-溴-3-氯苯基)-1-甲氧基-1-甲脲;",
    "alternate_name": "Urea, <em>N</em>′-(4-bromo-3-chlorophenyl)-<em>N</em>-methoxy-<em>N</em>-methyl-;Urea, 3-(4-bromo-3-chlorophenyl)-1-methoxy-1-methyl-;<em>N</em>′-(4-Bromo-3-chlorophenyl)-<em>N</em>-methoxy-<em>N</em>-methylurea;C 6313;Maloran;Chlorbromuron;<em>N</em>-(4-Bromo-3-chlorophenyl)-<em>N</em>′-methoxy-<em>N</em>′-methylurea;3-(4-Bromo-3-chlorophenyl)-1-methoxy-1-methylurea;1-(3-Chloro-4-bromophenyl)-3-methyl-3-methoxyurea;<em>N</em>-(4-Bromo-3-chlorophenyl)-<em>N</em>′-methyl-<em>N</em>′-methoxyurea;3-(3-Chloro-4-bromophenyl)-1-methyl-1-methoxyurea;3-(3-Chloro-4-bromophenyl)-1-methoxy-1-methylurea;<em>N</em>-(3-Chloro-4-bromophenyl)-<em>N</em>′-methoxy-<em>N</em>′-methyl-urea;Bromex (herbicide);Bromex;<em>N</em>-(3-Chloro-4-bromophenyl)-<em>N</em>′-methoxy-N′-methylurea;1-(4-Bromo-3-chlorophenyl)-3-methoxy-3-methylurea",
    "duplicated_cas_no": "",
    "SMILES": "N(C(N(OC)C)=O)C1=CC(Cl)=C(Br)C=C1",
    "meta_data": {
        "InChI": "InChI=1S/C9H10BrClN2O2/c1-13(15-2)9(14)12-6-3-4-7(10)8(11)5-6/h3-5H,1-2H3,(H,12,14)",
        "InChIKey": null,
        "Canonical SMILES": "O=C(NC1=CC=C(Br)C(Cl)=C1)N(OC)C",
        "Molecular Formula": "C<sub>9</sub>H<sub>10</sub>BrClN<sub>2</sub>O<sub>2</sub>",
        "Molecular Mass": "293.54",
        "Melting Point": "95-97 °C",
        "Density": "1.68 g/cm³ @ Temp: 20 °C"
    }
}