{
    "cas_no": "94-52-0",
    "key_name": "5-Nitrobenzimidazole",
    "cn_name": "6-硝基苯并咪唑;",
    "alternate_name": "1<em>H</em>-Benzimidazole, 6-nitro-;Benzimidazole, 5-nitro-;1<em>H</em>-Benzimidazole, 5-nitro-;Benzimidazole, 5(<em>or</em> 6)-nitro-;6-Nitro-1<em>H</em>-benzimidazole;5-Nitrobenzimidazole;6-Nitrobenzimidazole;5(6)-Nitrobenzimidazole;NSC 3068;NSC 58858;5-Nitro-1<em>H</em>-benzimidazole",
    "duplicated_cas_no": "89843-47-0",
    "SMILES": "N(=O)(=O)C=1C=C2C(=CC1)N=CN2",
    "meta_data": {
        "InChI": "InChI=1S/C7H5N3O2/c11-10(12)5-1-2-6-7(3-5)9-4-8-6/h1-4H,(H,8,9)",
        "InChIKey": null,
        "Canonical SMILES": "O=N(=O)C=1C=CC=2N=CNC2C1",
        "Molecular Formula": "C<sub>7</sub>H<sub>5</sub>N<sub>3</sub>O<sub>2</sub>",
        "Molecular Mass": "163.13",
        "Melting Point": "203 °C"
    }
}