{
    "cas_no": "1849-55-4",
    "key_name": "3-Hydroxy-2-pyridinecarboxaldehyde",
    "cn_name": "3-羟基-2-吡啶甲醛;2-醛基-3-羟基吡啶;",
    "alternate_name": "2-Pyridinecarboxaldehyde, 3-hydroxy-;Picolinaldehyde, 3-hydroxy-;3-Hydroxy-2-pyridinecarboxaldehyde;3-Hydroxypyridine-2-aldehyde;2-Formyl-3-hydroxypyridine;3-Hydroxypicolinaldehyde;3-Hydroxypyridine-2-carbaldehyde",
    "duplicated_cas_no": "",
    "SMILES": "C(=O)C1=C(O)C=CC=N1",
    "meta_data": {
        "InChI": "InChI=1S/C6H5NO2/c8-4-5-6(9)2-1-3-7-5/h1-4,9H",
        "InChIKey": null,
        "Canonical SMILES": "O=CC1=NC=CC=C1O",
        "Molecular Formula": "C<sub>6</sub>H<sub>5</sub>NO<sub>2</sub>",
        "Molecular Mass": "123.11",
        "Boiling Point": "64 °C @ Press: 5 Torr",
        "Melting Point": "81-82 °C (sublm)"
    }
}