{
    "cas_no": "875664-52-1",
    "key_name": "3,4-Difluoro-2-methoxybenzoic acid",
    "cn_name": "3,4-二氟-2-甲氧基苯甲酸;",
    "alternate_name": "Benzoic acid, 3,4-difluoro-2-methoxy-;3,4-Difluoro-2-methoxybenzoic acid",
    "duplicated_cas_no": "",
    "SMILES": "O(C)C1=C(C(O)=O)C=CC(F)=C1F",
    "meta_data": {
        "InChI": "InChI=1S/C8H6F2O3/c1-13-7-4(8(11)12)2-3-5(9)6(7)10/h2-3H,1H3,(H,11,12)",
        "InChIKey": null,
        "Canonical SMILES": "O=C(O)C1=CC=C(F)C(F)=C1OC",
        "Molecular Formula": "C<sub>8</sub>H<sub>6</sub>F<sub>2</sub>O<sub>3</sub>",
        "Molecular Mass": "188.13",
        "Melting Point": "140-141 °C"
    }
}