{
    "cas_no": "1197-09-7",
    "key_name": "3′,4′-Dihydroxyacetophenone",
    "cn_name": "3,4-二羟基苯乙酮;",
    "alternate_name": "Ethanone, 1-(3,4-dihydroxyphenyl)-;Acetophenone, 3′,4′-dihydroxy-;1-(3,4-Dihydroxyphenyl)ethanone;4-Acetopyrocatechol;Acetopyrocatechol;4-Acetyl-1,2-benzenediol;3′,4′-Dihydroxyacetophenone;4-Acetylpyrocatechol;Qingxintong;4-Acetylcatechol;1-(3,4-Dihydroxyphenyl)ethan-1-one;Pungenol;4-Acetyl-1,2-dihydroxybenzene",
    "duplicated_cas_no": "",
    "SMILES": "C(C)(=O)C1=CC(O)=C(O)C=C1",
    "meta_data": {
        "InChI": "InChI=1S/C8H8O3/c1-5(9)6-2-3-7(10)8(11)4-6/h2-4,10-11H,1H3",
        "InChIKey": null,
        "Canonical SMILES": "O=C(C1=CC=C(O)C(O)=C1)C",
        "Molecular Formula": "C<sub>8</sub>H<sub>8</sub>O<sub>3</sub>",
        "Molecular Mass": "152.15",
        "Boiling Point": "127-133 °C @ Press: 11 Torr",
        "Melting Point": "118-119 °C"
    }
}