{
    "cas_no": "19547-88-7",
    "key_name": "<em>N</em>,<em>S</em>-Diacetyl-<span class=\"text-smallcaps\">L</span>-cysteine methyl ester",
    "cn_name": "N,S-二乙酰基-L-半胱氨酸甲酯;",
    "alternate_name": "<span class=\"text-smallcaps\">L</span>-Cysteine, <em>N</em>,<em>S</em>-diacetyl-, methyl ester;Cysteine, <em>N</em>-acetyl-, methyl ester, acetate (ester), <span class=\"text-smallcaps\">L</span>-;<span class=\"text-smallcaps\">L</span>-Cysteine, <em>N</em>-acetyl-, methyl ester, acetate (ester);Acetic acid, thio-, <em>S</em>-ester with <em>N</em>-acetyl-<span class=\"text-smallcaps\">L</span>-cysteine methyl ester;<em>N</em>,<em>S</em>-Diacetyl-<span class=\"text-smallcaps\">L</span>-cysteine methyl ester;Mucothiol;<em>N</em>,<em>S</em>-Diacetylcysteine methyl ester",
    "duplicated_cas_no": "",
    "SMILES": "[C@@H](C(OC)=O)(CSC(C)=O)NC(C)=O",
    "meta_data": {
        "InChI": "InChI=1S/C8H13NO4S/c1-5(10)9-7(8(12)13-3)4-14-6(2)11/h7H,4H2,1-3H3,(H,9,10)/t7-/m0/s1",
        "InChIKey": null,
        "Canonical SMILES": "O=C(SCC(NC(=O)C)C(=O)OC)C",
        "Molecular Formula": "C<sub>8</sub>H<sub>13</sub>NO<sub>4</sub>S",
        "Molecular Mass": "219.26",
        "Melting Point": "100 °C"
    }
}