{
    "cas_no": "4712-55-4",
    "key_name": "Diphenyl phosphite",
    "cn_name": "亚磷酸二苯酯;",
    "alternate_name": "Phosphonic acid, diphenyl ester;Phenyl phosphonate ((PhO)<sub>2</sub>HPO);Diphenyl phosphonate;Diphenoxyphosphine oxide;Diphenyl hydrogen phosphite;JP 260;Weston DPP;Doverphos 213;Diphenyl phosphite;NSC 43786",
    "duplicated_cas_no": "",
    "SMILES": "O(P(OC1=CC=CC=C1)=O)C2=CC=CC=C2",
    "meta_data": {
        "InChI": "InChI=1S/C12H11O3P/c13-16(14-11-7-3-1-4-8-11)15-12-9-5-2-6-10-12/h1-10,16H",
        "InChIKey": null,
        "Canonical SMILES": "O=P(OC=1C=CC=CC1)OC=2C=CC=CC2",
        "Molecular Formula": "C<sub>12</sub>H<sub>11</sub>O<sub>3</sub>P",
        "Molecular Mass": "234.19",
        "Boiling Point": "218-219 °C @ Press: 25 Torr",
        "Melting Point": "12 °C",
        "Density": "1.2268 g/cm³ @ Temp: 25 °C"
    }
}