{
    "cas_no": "142-90-5",
    "key_name": "Lauryl methacrylate",
    "cn_name": "甲基丙烯酸月桂酯;十二烷基甲基丙烯酸酯;",
    "alternate_name": "2-Propenoic acid, 2-methyl-, dodecyl ester;Methacrylic acid, dodecyl ester;Dodecyl methacrylate;Dodecyl 2-methyl-2-propenoate;Lauryl methacrylate;<em>n</em>-Dodecyl methacrylate;Sipomer LMA;LAMA;1-Dodecyl methacrylate;Rocryl 320;SR 313;Ageflex FM 246;GE 410 (methacrylate);GE 410;Acryester L;NSC 5188;Exceparl L-MA;Light Ester L;SR 313E;MA 13;MA 13 (methacrylate);Blemmer LMA;LMA;EM 315;SR 313NS;SR 313A;LMA 2114F;M 121;Miramer M 121;C 12M;Light Ester LM;Komerate A 1290M",
    "duplicated_cas_no": "170292-57-6;279231-66-2;1274821-28-1",
    "SMILES": "C(CCCCCCCCCCC)OC(C(C)=C)=O",
    "meta_data": {
        "InChI": "InChI=1S/C16H30O2/c1-4-5-6-7-8-9-10-11-12-13-14-18-16(17)15(2)3/h2,4-14H2,1,3H3",
        "InChIKey": null,
        "Canonical SMILES": "O=C(OCCCCCCCCCCCC)C(=C)C",
        "Molecular Formula": "C<sub>16</sub>H<sub>30</sub>O<sub>2</sub>",
        "Molecular Mass": "254.41",
        "Boiling Point": "272 °C",
        "Melting Point": "-20 °C",
        "Density": "0.868 g/cm³ @ Temp: 20 °C"
    }
}