{
    "cas_no": "607-00-1",
    "key_name": "Diphenylformamide",
    "cn_name": "N,N-二苯基甲酰胺;",
    "alternate_name": "Formamide, <em>N</em>,<em>N</em>-diphenyl-;<em>N</em>,<em>N</em>-Diphenylformamide;Diphenylformamide;<em>N</em>-Phenylformanilide;NSC 3864;<em>N</em>-Formyldiphenylamine",
    "duplicated_cas_no": "",
    "SMILES": "N(C=O)(C1=CC=CC=C1)C2=CC=CC=C2",
    "meta_data": {
        "InChI": "InChI=1S/C13H11NO/c15-11-14(12-7-3-1-4-8-12)13-9-5-2-6-10-13/h1-11H",
        "InChIKey": null,
        "Canonical SMILES": "O=CN(C=1C=CC=CC1)C=2C=CC=CC2",
        "Molecular Formula": "C<sub>13</sub>H<sub>11</sub>NO",
        "Molecular Mass": "197.23",
        "Boiling Point": "337.5 °C",
        "Melting Point": "73.5 °C"
    }
}