{
    "cas_no": "5011-34-7",
    "key_name": "Trimetazidine",
    "cn_name": "曲美他嗪;1-[(2,3,4-三甲氧基苯基)甲基]哌嗪;",
    "alternate_name": "Piperazine, 1-[(2,3,4-trimethoxyphenyl)methyl]-;Piperazine, 1-(2,3,4-trimethoxybenzyl)-;1-[(2,3,4-Trimethoxyphenyl)methyl]piperazine;Trimetazidine;1-(2,3,4-Trimethoxybenzyl)piperazine;Preductal;Vasorel;4-(2,3,4-Trimethoxybenzyl)piperazine;Preductal MB;Trimetazidine (TMZ);TMZ;MeSH ID: D014292",
    "duplicated_cas_no": "",
    "SMILES": "C(C1=C(OC)C(OC)=C(OC)C=C1)N2CCNCC2",
    "meta_data": {
        "InChI": "InChI=1S/C14H22N2O3/c1-17-12-5-4-11(13(18-2)14(12)19-3)10-16-8-6-15-7-9-16/h4-5,15H,6-10H2,1-3H3",
        "InChIKey": null,
        "Canonical SMILES": "O(C1=CC=C(C(OC)=C1OC)CN2CCNCC2)C",
        "Molecular Formula": "C<sub>14</sub>H<sub>22</sub>N<sub>2</sub>O<sub>3</sub>",
        "Molecular Mass": "266.34",
        "Boiling Point": "202.5 °C"
    }
}