{
    "cas_no": "119-36-8",
    "key_name": "Methyl salicylate",
    "cn_name": "水杨酸甲酯;冬青油;柳酸甲酯;",
    "alternate_name": "Benzoic acid, 2-hydroxy-, methyl ester;Salicylic acid, methyl ester;Methyl <em>o</em>-hydroxybenzoate;Methyl salicylate;Methyl 2-hydroxybenzoate;<em>o</em>-Hydroxybenzoic acid methyl ester;2-Hydroxybenzoic acid methyl ester;Analgit;Exagien;Flucarmit;2-(Methoxycarbonyl)phenol;Anthrapole ND;Wintergreen oil;2-Carbomethoxyphenol;NSC 8204;Ben Gay;Methyl ester of 2-hydroxy benzoic acid;Methyl ester 2-hydroxy benzoic acid;PredaLure;Holly oil",
    "duplicated_cas_no": "8022-86-4;8024-54-2;648434-07-5",
    "SMILES": "C(OC)(=O)C1=C(O)C=CC=C1",
    "meta_data": {
        "InChI": "InChI=1S/C8H8O3/c1-11-8(10)6-4-2-3-5-7(6)9/h2-5,9H,1H3",
        "InChIKey": null,
        "Canonical SMILES": "O=C(OC)C=1C=CC=CC1O",
        "Molecular Formula": "C<sub>8</sub>H<sub>8</sub>O<sub>3</sub>",
        "Molecular Mass": "152.15",
        "Boiling Point": "220-224 °C",
        "Melting Point": "-8.6 °C",
        "Density": "1.184 g/cm³ @ Temp: 25 °C"
    }
}