{
    "cas_no": "13716-10-4",
    "key_name": "Di-<em>tert</em>-butylchlorophosphine",
    "cn_name": "二叔丁基氯化膦;",
    "alternate_name": "Phosphinous chloride, <em>P</em>,<em>P</em>-bis(1,1-dimethylethyl)-;Phosphinous chloride, di-<em>tert</em>-butyl-;Phosphinous chloride, bis(1,1-dimethylethyl)-;<em>P</em>,<em>P</em>-Bis(1,1-dimethylethyl)phosphinous chloride;Di-<em>tert</em>-Butylphosphinous chloride;Di-<em>tert</em>-butylchlorophosphine;Chlorodi-<em>tert</em>-butylphosphine;Bis(1,1-dimethylethyl)phosphinous chloride;Bis(<em>tert</em>-butyl)phosphinous chloride;Bis(<em>tert</em>-butyl)chlorophosphine",
    "duplicated_cas_no": "",
    "SMILES": "P(C(C)(C)C)(C(C)(C)C)Cl",
    "meta_data": {
        "InChI": "InChI=1S/C8H18ClP/c1-7(2,3)10(9)8(4,5)6/h1-6H3",
        "InChIKey": null,
        "Canonical SMILES": "ClP(C(C)(C)C)C(C)(C)C",
        "Molecular Formula": "C<sub>8</sub>H<sub>18</sub>ClP",
        "Molecular Mass": "180.66",
        "Boiling Point": "69-70 °C @ Press: 10 Torr"
    }
}