{
    "cas_no": "9004-10-8",
    "key_name": "Insulin",
    "cn_name": null,
    "alternate_name": "Insulin;Iletin;Endopancrine;Insular;Insulyl;Iszilin;Insulin Injection;Decurvon;HMR 4006;Musulin;Intesulin B;Dermulin;Humilin;LinBit;Afrezza;Humilin R;INS;MeSH ID: D007328;BRP 129T",
    "duplicated_cas_no": "8049-95-4;8049-67-0;9004-12-0;9037-76-7;9045-66-3;9045-65-2;9045-63-0;9045-67-4;9066-40-4;9066-39-1;11081-38-2;37243-75-7;37294-43-2;57126-42-8;69090-47-7;88026-12-4;88026-11-3;11097-08-8",
    "SMILES": "",
    "meta_data": {
        "InChI": "",
        "InChIKey": null,
        "Canonical SMILES": "",
        "Molecular Formula": "Unspecified",
        "Molecular Mass": "",
        "Melting Point": "233 °C",
        "Density": "1.09 g/cm³"
    }
}