{
    "uri": "substance/pt/9004108",
    "rn": "9004-10-8",
    "name": "Insulin",
    "images": [],
    "inchi": "",
    "inchiKey": "",
    "smile": "",
    "canonicalSmile": "",
    "molecularFormula": "Unspecified",
    "molecularMass": "",
    "experimentalProperties": [
        {
            "name": "Melting Point",
            "property": "233 °C",
            "sourceNumber": 1
        },
        {
            "name": "Density",
            "property": "1.09 g/cm³",
            "sourceNumber": 2
        }
    ],
    "propertyCitations": [
        {
            "docUri": "document/pt/document/23160286",
            "sourceNumber": 1,
            "source": "Abel, J. J.; Proceedings of the National Academy of Sciences of the United States of America, (1926), 12, 132-6, CAplus"
        },
        {
            "docUri": "document/pt/document/11694780",
            "sourceNumber": 2,
            "source": "Harding, Marjorie M.; Journal of Molecular Biology, (1966), 16(1), 212-26, CAplus"
        }
    ],
    "synonyms": [
        "Insulin",
        "Iletin",
        "Endopancrine",
        "Insular",
        "Insulyl",
        "Iszilin",
        "Insulin Injection",
        "Decurvon",
        "HMR 4006",
        "Musulin",
        "Intesulin B",
        "Dermulin",
        "Humilin",
        "LinBit",
        "Afrezza",
        "Humilin R",
        "INS",
        "MeSH ID: D007328",
        "BRP 129T"
    ],
    "replacedRns": [
        "8049-95-4",
        "8049-67-0",
        "9004-12-0",
        "9037-76-7",
        "9045-66-3",
        "9045-65-2",
        "9045-63-0",
        "9045-67-4",
        "9066-40-4",
        "9066-39-1",
        "11081-38-2",
        "37243-75-7",
        "37294-43-2",
        "57126-42-8",
        "69090-47-7",
        "88026-12-4",
        "88026-11-3",
        "11097-08-8"
    ],
    "hasMolfile": false,
    "source": "https://commonchemistry.cas.org/detail?cas_rn=9004-10-8"
}