{
    "cas_no": "30736-07-3",
    "key_name": "Bis(1,1-dimethylethyl)silane",
    "cn_name": null,
    "alternate_name": "Silane, bis(1,1-dimethylethyl)-;Silane, di-<em>tert</em>-butyl-;Bis(1,1-dimethylethyl)silane;Di-<em>tert</em>-butylsilane",
    "duplicated_cas_no": "",
    "SMILES": "[SiH2](C(C)(C)C)C(C)(C)C",
    "meta_data": {
        "InChI": "InChI=1S/C8H20Si/c1-7(2,3)9-8(4,5)6/h9H2,1-6H3",
        "InChIKey": null,
        "Canonical SMILES": "CC(C)(C)[SiH2]C(C)(C)C",
        "Molecular Formula": "C<sub>8</sub>H<sub>20</sub>Si",
        "Molecular Mass": "144.33",
        "Boiling Point": "128 °C",
        "Melting Point": "-38 °C",
        "Density": "0.740 g/cm³"
    }
}