{
    "cas_no": "31407-74-6",
    "key_name": "Carbamimidic acid, ethyl ester, hydrochloride (1:1)",
    "cn_name": null,
    "alternate_name": "Carbamimidic acid, ethyl ester, hydrochloride (1:1);Pseudourea, 2-ethyl-, monohydrochloride;Pseudourea, 2-ethyl-, hydrochloride;Carbamimidic acid, ethyl ester, monohydrochloride;2-Ethylpseudourea hydrochloride;<em>O</em>-Ethylisourea hydrochloride;Ethyl carbamimidate hydrochloride",
    "duplicated_cas_no": "",
    "SMILES": "O(C(=N)N)CC.Cl",
    "meta_data": {
        "InChI": "InChI=1S/C3H8N2O.ClH/c1-2-6-3(4)5;/h2H2,1H3,(H3,4,5);1H",
        "InChIKey": null,
        "Canonical SMILES": "Cl.N=C(OCC)N",
        "Molecular Formula": "C<sub>3</sub>H<sub>8</sub>N<sub>2</sub>O.ClH",
        "Molecular Mass": "",
        "Melting Point": "99-101 °C"
    }
}