{
    "cas_no": "104-15-4",
    "key_name": "<em>p</em>-Toluenesulfonic acid",
    "cn_name": "对甲苯磺酸;",
    "alternate_name": "Benzenesulfonic acid, 4-methyl-;4-Methylbenzenesulfonic acid;<em>p</em>-Methylbenzenesulfonic acid;Tosic acid;<em>p</em>-Methylphenylsulfonic acid;Toluenesulfonic acid;<em>p</em>-Toluenesulfonic acid;<em>p</em>-Tolylsulfonic acid;4-Toluenesulfonic acid;K-Cure 1040;Cyzac 4040;Nacure 1040;PTS 100;NSC 167068;NSC 2167;KC 1040;Dryer 900;TSA 95;Cat 51-53;Taycatox 300;C 250;AD 3302W;Methylbenzenesulfonic acid;4-Methylbenzene-1-sulfonic acid;Activator 100T3;Cycat 4040;KCG 3553;4-Methyl-benzensulfonic acid;p-Tsoh;PTS-M 7000;TsOH;Cycat 602;Aktivator 100 SR;Taycacure AC 700;Neocat C 4;1-Methyl-4-(sulfosulfonyl)benzene;Taycacure AC 707;PS 80 (sulfonic acid);PS 80;MeSH ID: D014105;CAT-PS 80;PTS-MT 70;Benzenesulfonic acid, 4-methyl-, conjugate acid (1:1)",
    "duplicated_cas_no": "402-47-1;51506-29-7;100901-72-2;114213-96-6;119314-18-0;126033-27-0;128739-80-0;144647-92-7;156627-46-2;185568-48-3;210357-81-6;227313-49-7;369371-25-5;613262-31-0;1023356-14-0;2756222-57-6;2868312-36-9",
    "SMILES": "S(=O)(=O)(O)C1=CC=C(C)C=C1",
    "meta_data": {
        "InChI": "InChI=1S/C7H8O3S/c1-6-2-4-7(5-3-6)11(8,9)10/h2-5H,1H3,(H,8,9,10)",
        "InChIKey": null,
        "Canonical SMILES": "O=S(=O)(O)C1=CC=C(C=C1)C",
        "Molecular Formula": "C<sub>7</sub>H<sub>8</sub>O<sub>3</sub>S",
        "Molecular Mass": "172.20",
        "Boiling Point": "140 °C @ Press: 20 Torr",
        "Melting Point": "106-107 °C",
        "Density": "1.24 g/cm³"
    }
}