{
    "cas_no": "64169-34-2",
    "key_name": "5-Bromophthalide",
    "cn_name": "5-溴苯酞;5-溴异苯并呋喃-1(3H)-酮;",
    "alternate_name": "1(3<em>H</em>)-Isobenzofuranone, 5-bromo-;5-Bromo-1(3<em>H</em>)-isobenzofuranone;5-Bromophthalide;5-Bromo-3<em>H</em>-isobenzofuran-1-one;5-Bromoisobenzofuran-1(3<em>H</em>)-one;5-Bromo-2-benzofuran-1(3<em>H</em>)-one;5-Bromoisobenzofuran-1-one",
    "duplicated_cas_no": "",
    "SMILES": "O=C1C=2C(CO1)=CC(Br)=CC2",
    "meta_data": {
        "InChI": "InChI=1S/C8H5BrO2/c9-6-1-2-7-5(3-6)4-11-8(7)10/h1-3H,4H2",
        "InChIKey": null,
        "Canonical SMILES": "O=C1OCC2=CC(Br)=CC=C12",
        "Molecular Formula": "C<sub>8</sub>H<sub>5</sub>BrO<sub>2</sub>",
        "Molecular Mass": "213.03",
        "Melting Point": "165 °C"
    }
}