{
    "cas_no": "134-36-1",
    "key_name": "Erythromycin propionate",
    "cn_name": null,
    "alternate_name": "Erythromycin, 2′-propanoate;Erythromycin, 2′-propionate;Erythromycin propionate;Oxacyclotetradecane, erythromycin deriv.;Propionylerythromycin;2′-Propionylerythromycin;Propionyl erythromicin;Propiocine",
    "duplicated_cas_no": "29059-27-6;50976-87-9;51116-10-0",
    "SMILES": "O([C@H]1[C@H](OC(CC)=O)[C@@H](N(C)C)C[C@@H](C)O1)[C@@H]2[C@@H](C)[C@H](O[C@H]3C[C@](OC)(C)[C@@H](O)[C@H](C)O3)[C@@H](C)C(=O)O[C@H](CC)[C@@](C)(O)[C@H](O)[C@@H](C)C(=O)[C@H](C)C[C@@]2(C)O",
    "meta_data": {
        "InChI": "InChI=1S/C40H71NO14/c1-15-27-40(11,48)33(44)22(5)30(43)20(3)18-38(9,47)35(55-37-32(53-28(42)16-2)26(41(12)13)17-21(4)50-37)23(6)31(24(7)36(46)52-27)54-29-19-39(10,49-14)34(45)25(8)51-29/h20-27,29,31-35,37,44-45,47-48H,15-19H2,1-14H3/t20-,21-,22+,23+,24-,25+,26+,27-,29+,31+,32-,33-,34+,35-,37+,38-,39-,40-/m1/s1",
        "InChIKey": null,
        "Canonical SMILES": "O=C(OC1C(OC(C)CC1N(C)C)OC2C(C)C(OC3OC(C)C(O)C(OC)(C)C3)C(C(=O)OC(CC)C(O)(C)C(O)C(C(=O)C(C)CC2(O)C)C)C)CC",
        "Molecular Formula": "C<sub>40</sub>H<sub>71</sub>NO<sub>14</sub>",
        "Molecular Mass": "789.99",
        "Melting Point": "122-126 °C"
    }
}