{
    "cas_no": "6628-04-2",
    "key_name": "4-Amino-2-methylquinoline",
    "cn_name": "4-氨基喹哪啶;4-氨基-2-甲基喹啉;",
    "alternate_name": "4-Quinolinamine, 2-methyl-;Quinaldine, 4-amino-;2-Methyl-4-quinolinamine;4-Aminoquinaldine;4-Amino-2-methylquinoline;4-Quinaldinamine;2-Methyl-4-aminoquinoline;(2-Methylquinolin-4-yl)amine;NSC 60281;2-Methylquinolin-4-amine",
    "duplicated_cas_no": "",
    "SMILES": "NC=1C2=C(N=C(C)C1)C=CC=C2",
    "meta_data": {
        "InChI": "InChI=1S/C10H10N2/c1-7-6-9(11)8-4-2-3-5-10(8)12-7/h2-6H,1H3,(H2,11,12)",
        "InChIKey": null,
        "Canonical SMILES": "N=1C=2C=CC=CC2C(N)=CC1C",
        "Molecular Formula": "C<sub>10</sub>H<sub>10</sub>N<sub>2</sub>",
        "Molecular Mass": "158.20",
        "Boiling Point": "333 °C",
        "Melting Point": "169 °C"
    }
}