{
    "cas_no": "2386-64-3",
    "key_name": "Ethylmagnesium chloride",
    "cn_name": "乙基氯化镁;氯化乙基镁;",
    "alternate_name": "Magnesium, chloroethyl-;Ethylmagnesium chloride;Chloroethylmagnesium",
    "duplicated_cas_no": "",
    "SMILES": "C([Mg]Cl)C",
    "meta_data": {
        "InChI": "InChI=1S/C2H5.ClH.Mg/c1-2;;/h1H2,2H3;1H;/q;;+1/p-1",
        "InChIKey": null,
        "Canonical SMILES": "Cl[Mg]CC",
        "Molecular Formula": "C<sub>2</sub>H<sub>5</sub>ClMg",
        "Molecular Mass": "",
        "Boiling Point": "136-138 °C @ Press: 13 Torr"
    }
}