{
    "cas_no": "3704-28-7",
    "key_name": "Benzoic acid, 2-(methylthio)-, methyl ester",
    "cn_name": "2-(甲基硫代)苯甲酸甲酯;",
    "alternate_name": "Benzoic acid, 2-(methylthio)-, methyl ester;Benzoic acid, <em>o</em>-(methylthio)-, methyl ester;<em>o</em>-(Methylthio)benzoic acid methyl ester;Methyl 2-(methylmercapto)benzoate;Methyl 2-(methylthio)benzoate;Methyl <em>o</em>-(methylthio)benzoate;Methyl <em>O</em>-methylthiosalicylate;Methyl <em>o</em>-(methoxycarbonyl)phenyl sulfide;2-(Methylthio)benzoic acid methyl ester;NSC 130740;2-Methylsulfanylbenzoic acid methyl ester",
    "duplicated_cas_no": "",
    "SMILES": "C(OC)(=O)C1=C(SC)C=CC=C1",
    "meta_data": {
        "InChI": "InChI=1S/C9H10O2S/c1-11-9(10)7-5-3-4-6-8(7)12-2/h3-6H,1-2H3",
        "InChIKey": null,
        "Canonical SMILES": "O=C(OC)C=1C=CC=CC1SC",
        "Molecular Formula": "C<sub>9</sub>H<sub>10</sub>O<sub>2</sub>S",
        "Molecular Mass": "182.24",
        "Melting Point": "66-67 °C"
    }
}