{
    "cas_no": "26148-68-5",
    "key_name": "2-Amino-9<em>H</em>-pyrido[2,3-<em>b</em>]indole",
    "cn_name": "2-氨基-9H-吡啶[2,3-b]吲哚;",
    "alternate_name": "9<em>H</em>-Pyrido[2,3-<em>b</em>]indol-2-amine;9<em>H</em>-Pyrido[2,3-<em>b</em>]indole, 2-amino-;1<em>H</em>-Pyrido[2,3-<em>b</em>]indol-2-amine;2-Amino-9<em>H</em>-pyrido[2,3-<em>b</em>]indole;9<em>H</em>-1,9-Diazafluoren-2-amine;2-Amino-α-carboline;AaC;AαC",
    "duplicated_cas_no": "",
    "SMILES": "NC=1N=C2C(C=3C(N2)=CC=CC3)=CC1",
    "meta_data": {
        "InChI": "InChI=1S/C11H9N3/c12-10-6-5-8-7-3-1-2-4-9(7)13-11(8)14-10/h1-6H,(H3,12,13,14)",
        "InChIKey": null,
        "Canonical SMILES": "N=1C(N)=CC=C2C1NC=3C=CC=CC32",
        "Molecular Formula": "C<sub>11</sub>H<sub>9</sub>N<sub>3</sub>",
        "Molecular Mass": "183.21",
        "Melting Point": "202 °C"
    }
}