{
    "cas_no": "868-63-3",
    "key_name": "<em>N</em>,<em>N</em>′-(1,2-Dihydroxy-1,2-ethanediyl)bis[2-propenamide]",
    "cn_name": null,
    "alternate_name": "2-Propenamide, <em>N</em>,<em>N</em>′-(1,2-dihydroxy-1,2-ethanediyl)bis-;Acrylamide, <em>N</em>,<em>N</em>′-(1,2-dihydroxyethylene)bis-;<em>N</em>,<em>N</em>′-(1,2-Dihydroxy-1,2-ethanediyl)bis[2-propenamide];DHEBA;1,2-Dihydroxyethylene-1,2-bisacrylamide;1,2-Diacrylamido-1,2-dihydroxylethane;D 2864;<em>N</em>,<em>N</em>′-Diacryloyl-1,2-dihydroxyethylenediamine",
    "duplicated_cas_no": "",
    "SMILES": "C(C(NC(C=C)=O)O)(NC(C=C)=O)O",
    "meta_data": {
        "InChI": "InChI=1S/C8H12N2O4/c1-3-5(11)9-7(13)8(14)10-6(12)4-2/h3-4,7-8,13-14H,1-2H2,(H,9,11)(H,10,12)",
        "InChIKey": null,
        "Canonical SMILES": "O=C(C=C)NC(O)C(O)NC(=O)C=C",
        "Molecular Formula": "C<sub>8</sub>H<sub>12</sub>N<sub>2</sub>O<sub>4</sub>",
        "Molecular Mass": "200.19",
        "Melting Point": "158 °C"
    }
}