{
    "cas_no": "2164-09-2",
    "key_name": "Chloranocryl",
    "cn_name": "地快尔;甲叉敌稗;",
    "alternate_name": "2-Propenamide, <em>N</em>-(3,4-dichlorophenyl)-2-methyl-;Acrylanilide, 3′,4′-dichloro-2-methyl-;<em>N</em>-(3,4-Dichlorophenyl)-2-methyl-2-propenamide;N 4556;DCMA;3′,4′-Dichloro-2-methylacrylanilide;<em>N</em>-(3,4-Dichlorophenyl)methacrylamide;Dicryl;Methacrylic acid 3,4-dichloroanilide;Niagara 4556;3′,4′-Dichloromethacrylanilide;Licryl;Chloranocryl;2-Methyl-<em>N</em>-(3,4-dichlorophenyl)acrylamide",
    "duplicated_cas_no": "",
    "SMILES": "N(C(C(C)=C)=O)C1=CC(Cl)=C(Cl)C=C1",
    "meta_data": {
        "InChI": "InChI=1S/C10H9Cl2NO/c1-6(2)10(14)13-7-3-4-8(11)9(12)5-7/h3-5H,1H2,2H3,(H,13,14)",
        "InChIKey": null,
        "Canonical SMILES": "O=C(NC1=CC=C(Cl)C(Cl)=C1)C(=C)C",
        "Molecular Formula": "C<sub>10</sub>H<sub>9</sub>Cl<sub>2</sub>NO",
        "Molecular Mass": "230.09",
        "Melting Point": "128 °C"
    }
}