{
    "cas_no": "84942-40-5",
    "key_name": "2-Hydroxy-5-chloro-3-nitroacetophenone",
    "cn_name": null,
    "alternate_name": "Ethanone, 1-(5-chloro-2-hydroxy-3-nitrophenyl)-;Acetophenone, 5′-chloro-2′-hydroxy-3′-nitro-;1-(5-Chloro-2-hydroxy-3-nitrophenyl)ethanone;2-Acetyl-4-chloro-6-nitrophenol;5′-Chloro-3′-nitro-2′-hydroxyacetophenone;2-Hydroxy-5-chloro-3-nitroacetophenone;5′-Chloro-2′-hydroxy-3′-nitroacetophenone;1-(5-Chloro-2-hydroxy-3-nitrophenyl)ethan-1-one",
    "duplicated_cas_no": "",
    "SMILES": "C(C)(=O)C1=C(O)C(N(=O)=O)=CC(Cl)=C1",
    "meta_data": {
        "InChI": "InChI=1S/C8H6ClNO4/c1-4(11)6-2-5(9)3-7(8(6)12)10(13)14/h2-3,12H,1H3",
        "InChIKey": null,
        "Canonical SMILES": "O=C(C1=CC(Cl)=CC(=C1O)N(=O)=O)C",
        "Molecular Formula": "C<sub>8</sub>H<sub>6</sub>ClNO<sub>4</sub>",
        "Molecular Mass": "215.59",
        "Melting Point": "133 °C"
    }
}