{
    "cas_no": "118-29-6",
    "key_name": "<em>N</em>-(Hydroxymethyl)phthalimide",
    "cn_name": "N-羟甲基酞酰亚胺;N-羟甲基邻苯二甲酰亚胺;",
    "alternate_name": "1<em>H</em>-Isoindole-1,3(2<em>H</em>)-dione, 2-(hydroxymethyl)-;Phthalimide, <em>N</em>-(hydroxymethyl)-;2-(Hydroxymethyl)-1<em>H</em>-isoindole-1,3(2<em>H</em>)-dione;Phthalimidomethyl alcohol;(Hydroxymethyl)phthalimide;<em>N</em>-(Hydroxymethyl)phthalimide;<em>N</em>-Methylolphthalimide;NSC 27350;NSC 27471;NSC 39723;2-(Hydroxymethyl)isoindoline-1,3-dione;2-(Hydroxymethyl)-2,3-dihydro-1<em>H</em>-isoindole-1,3-dione;2-(Hydroxymethyl)isoindole-1,3-dione",
    "duplicated_cas_no": "",
    "SMILES": "O=C1C=2C(C(=O)N1CO)=CC=CC2",
    "meta_data": {
        "InChI": "InChI=1S/C9H7NO3/c11-5-10-8(12)6-3-1-2-4-7(6)9(10)13/h1-4,11H,5H2",
        "InChIKey": null,
        "Canonical SMILES": "O=C1C=2C=CC=CC2C(=O)N1CO",
        "Molecular Formula": "C<sub>9</sub>H<sub>7</sub>NO<sub>3</sub>",
        "Molecular Mass": "177.16",
        "Melting Point": "141-142 °C"
    }
}