{
    "cas_no": "13780-06-8",
    "key_name": "Calcium nitrite",
    "cn_name": "亚硝酸钙;",
    "alternate_name": "Nitrous acid, calcium salt (2:1);Nitrous acid, calcium salt;Calcium nitrite;Calcium nitrite (Ca(NO<sub>2</sub>)<sub>2</sub>);Calcium dinitrite;Daraset;DCI (corrosion inhibitor);DCI;DCI-S;CANI 30",
    "duplicated_cas_no": "182893-14-7",
    "SMILES": "N(=O)O.[Ca]",
    "meta_data": {
        "InChI": "InChI=1S/Ca.HNO2/c;2-1-3/h;(H,2,3)",
        "InChIKey": null,
        "Canonical SMILES": "[Ca].O=NO",
        "Molecular Formula": "Ca.2HNO<sub>2</sub>",
        "Molecular Mass": "",
        "Melting Point": "390 °C"
    }
}