{
    "cas_no": "3894-09-5",
    "key_name": "Cyclohexylphenylacetic acid",
    "cn_name": "环己基苯乙酸;",
    "alternate_name": "Benzeneacetic acid, α-cyclohexyl-;Cyclohexaneacetic acid, α-phenyl-;α-Cyclohexylbenzeneacetic acid;Acetic acid, cyclohexylphenyl-;Cyclohexylphenylacetic acid;2-Cyclohexyl-2-phenylacetic acid;α-Cyclohexyl-α-phenylacetic acid;α-Cyclohexylphenylacetic acid;α-Phenylcyclohexaneacetic acid;(±)-Cyclohexylphenylacetic acid;NSC 60418",
    "duplicated_cas_no": "50896-03-2",
    "SMILES": "C(C(O)=O)(C1CCCCC1)C2=CC=CC=C2",
    "meta_data": {
        "InChI": "InChI=1S/C14H18O2/c15-14(16)13(11-7-3-1-4-8-11)12-9-5-2-6-10-12/h1,3-4,7-8,12-13H,2,5-6,9-10H2,(H,15,16)",
        "InChIKey": null,
        "Canonical SMILES": "O=C(O)C(C=1C=CC=CC1)C2CCCCC2",
        "Molecular Formula": "C<sub>14</sub>H<sub>18</sub>O<sub>2</sub>",
        "Molecular Mass": "218.29",
        "Melting Point": "150-151 °C"
    }
}