{
    "cas_no": "811-93-8",
    "key_name": "1,2-Diamino-2-methylpropane",
    "cn_name": "1,2-二氨基-2-甲基丙烷;1,2-二氨基-2-甲基丙烷;1,2-二氨-2-甲基丙烷;1,2-二氨基异丁烷;2-甲基亚丙基二胺;异;",
    "alternate_name": "1,2-Propanediamine, 2-methyl-;2-Methyl-1,2-propanediamine;1,2-Diamino-2-methylpropane;2,3-Diamino-2-methylpropane;2-Methyl-1,2-diaminopropane;1,1-Dimethylethylenediamine;2,2-Dimethylethylenediamine;<em>C</em>,<em>C</em>-Dimethylethylenediamine;2-Amino-2-methylpropylamine;Isobutylenediamine;1,1-Dimethyl-1,2-ethanediamine;NSC 114220;NSC 17717;(2-Amino-1,1-dimethylethyl)amine;2-Methylpropan-1,2-diamine",
    "duplicated_cas_no": "",
    "SMILES": "C(CN)(C)(C)N",
    "meta_data": {
        "InChI": "InChI=1S/C4H12N2/c1-4(2,6)3-5/h3,5-6H2,1-2H3",
        "InChIKey": null,
        "Canonical SMILES": "NCC(N)(C)C",
        "Molecular Formula": "C<sub>4</sub>H<sub>12</sub>N<sub>2</sub>",
        "Molecular Mass": "88.15",
        "Boiling Point": "59 °C @ Press: 20 Torr",
        "Melting Point": "120-120.8 °C"
    }
}