{
    "cas_no": "25812-30-0",
    "key_name": "Gemfibrozil",
    "cn_name": "吉非罗齐;2,2-二甲基-5-(2,5-二甲基苯氧基)戊酸;",
    "alternate_name": "Pentanoic acid, 5-(2,5-dimethylphenoxy)-2,2-dimethyl-;Valeric acid, 2,2-dimethyl-5-(2,5-xylyloxy)-;5-(2,5-Dimethylphenoxy)-2,2-dimethylpentanoic acid;2,2-Dimethyl-5-(2,5-xylyloxy)valeric acid;Gemfibrozil;CI 719;Lopid;Trialmin 900;Gevilon;Decrelip;Lopizid;Lipur;Genlip;5-[(2,5-Dimethylphenyl)oxy]-2,2-dimethylpentanoic acid;2,2-Dimethyl-5-(2,5-dimethylphenoxy)pentanoic acid;MeSH ID: D015248",
    "duplicated_cas_no": "",
    "SMILES": "O(CCCC(C(O)=O)(C)C)C1=C(C)C=CC(C)=C1",
    "meta_data": {
        "InChI": "InChI=1S/C15H22O3/c1-11-6-7-12(2)13(10-11)18-9-5-8-15(3,4)14(16)17/h6-7,10H,5,8-9H2,1-4H3,(H,16,17)",
        "InChIKey": null,
        "Canonical SMILES": "O=C(O)C(C)(C)CCCOC1=CC(=CC=C1C)C",
        "Molecular Formula": "C<sub>15</sub>H<sub>22</sub>O<sub>3</sub>",
        "Molecular Mass": "250.33",
        "Boiling Point": "158.5 °C",
        "Melting Point": "62 °C",
        "Density": "1.09 g/cm³"
    }
}