{
    "cas_no": "20955-11-7",
    "key_name": "Ferrate(3-), hexafluoro-, sodium (1:3), (<em>OC</em>-6-11)-",
    "cn_name": null,
    "alternate_name": "Ferrate(3-), hexafluoro-, sodium (1:3), (<em>OC</em>-6-11)-;Ferrate(3-), hexafluoro-, trisodium;Ferrate(3-), hexafluoro-, trisodium, (<em>OC</em>-6-11)-;Sodium fluoferrate(III);Trisodium hexafluoroferrate(3-);Iron sodium fluoride (FeNa<sub>3</sub>F<sub>6</sub>);Iron sodium fluoride (FeNa<sub>3</sub>F<sub>6</sub>)",
    "duplicated_cas_no": "55340-76-6;792949-75-8;1471276-15-9;2036100-75-9",
    "SMILES": "[Fe+3]([F-])([F-])([F-])([F-])([F-])[F-].[Na+]",
    "meta_data": {
        "InChI": "InChI=1S/6FH.Fe.3Na/h6*1H;;;;/q;;;;;;+3;3*+1/p-6",
        "InChIKey": null,
        "Canonical SMILES": "[Na+].[F-][Fe+3]([F-])([F-])([F-])([F-])[F-]",
        "Molecular Formula": "F<sub>6</sub>Fe.3Na",
        "Molecular Mass": "",
        "Melting Point": "951 °C"
    }
}