{
    "cas_no": "54-11-5",
    "key_name": "(-)-Nicotine",
    "cn_name": "烟碱;尼古丁;",
    "alternate_name": "Pyridine, 3-[(2<em>S</em>)-1-methyl-2-pyrrolidinyl]-;Nicotine;Pyridine, 3-(1-methyl-2-pyrrolidinyl)-, (<em>S</em>)-;3-[(2<em>S</em>)-1-Methyl-2-pyrrolidinyl]pyridine;(-)-3-(1-Methyl-2-pyrrolidyl)pyridine;<em>l</em>-Nicotine;(-)-Nicotine;Nicotin;(<em>S</em>)-(-)-Nicotine;(-)-β-Pyridyl-α-<em>N</em>-methylpyrrolidine;Flux Maag;XL All Insecticide;<span class=\"text-smallcaps\">L</span>-Nicotine;Nicotinell;Nicoderm;Niconil;(<em>S</em>)-3-(1-Methyl-2-pyrrolidinyl)pyridine;Nicorette;(<em>S</em>)-Nicotine;Nicopatch;Nicotell TTS;Habitrol;Nicabate;Nicolan;Tabazur;NSC 5065;Nicotrol;(-)-(<em>S</em>)-Nicotine;Exodus;Nikofrenon;Niquitin;3-[(2S)-1-Methylpyrrolidin-2-yl]pyridine;MeSH ID: D009538",
    "duplicated_cas_no": "551-13-3;6912-85-2;13890-82-9;13890-81-8;16760-37-5",
    "SMILES": "CN1[C@@H](CCC1)C=2C=CC=NC2",
    "meta_data": {
        "InChI": "InChI=1S/C10H14N2/c1-12-7-3-5-10(12)9-4-2-6-11-8-9/h2,4,6,8,10H,3,5,7H2,1H3/t10-/m0/s1",
        "InChIKey": null,
        "Canonical SMILES": "N=1C=CC=C(C1)C2N(C)CCC2",
        "Molecular Formula": "C<sub>10</sub>H<sub>14</sub>N<sub>2</sub>",
        "Molecular Mass": "162.23",
        "Boiling Point": "247 °C",
        "Melting Point": "-79 °C",
        "Density": "1.0097 g/cm³ @ Temp: 20 °C"
    }
}