{
    "cas_no": "119-65-3",
    "key_name": "Isoquinoline",
    "cn_name": "异喹啉;",
    "alternate_name": "Isoquinoline;Benzo[<em>c</em>]pyridine;2-Azanaphthalene;2-Benzazine;Benzopyridine;β-Quinoline;NSC 3395",
    "duplicated_cas_no": "",
    "SMILES": "C12=C(C=CC=C1)C=NC=C2",
    "meta_data": {
        "InChI": "InChI=1S/C9H7N/c1-2-4-9-7-10-6-5-8(9)3-1/h1-7H",
        "InChIKey": null,
        "Canonical SMILES": "N=1C=CC=2C=CC=CC2C1",
        "Molecular Formula": "C<sub>9</sub>H<sub>7</sub>N",
        "Molecular Mass": "129.16",
        "Boiling Point": "243.2 °C",
        "Melting Point": "26.47 °C",
        "Density": "1.099 g/cm³ @ Temp: 20 °C"
    }
}