{
    "cas_no": "3069-21-4",
    "key_name": "Dodecyltrimethoxysilane",
    "cn_name": "十二烷基三甲氧基硅烷;",
    "alternate_name": "Silane, dodecyltrimethoxy-;Dodecyltrimethoxysilane;Trimethoxydodecylsilane;JH-N 3112;Lauryltrimethoxysilane;WD 10;<em>n</em>-Dodecyltrimethoxysilane;N 3112;SID 4635.0;KH 3112;Hydrophobe KH 580;KH 1213;SCA-K 12M;CG-N 1213;KH 303;KH 3113;HD 111 (silane);HD 111",
    "duplicated_cas_no": "159778-15-1;2836334-04-2",
    "SMILES": "[Si](CCCCCCCCCCCC)(OC)(OC)OC",
    "meta_data": {
        "InChI": "InChI=1S/C15H34O3Si/c1-5-6-7-8-9-10-11-12-13-14-15-19(16-2,17-3)18-4/h5-15H2,1-4H3",
        "InChIKey": null,
        "Canonical SMILES": "O(C)[Si](OC)(OC)CCCCCCCCCCCC",
        "Molecular Formula": "C<sub>15</sub>H<sub>34</sub>O<sub>3</sub>Si",
        "Molecular Mass": "290.51",
        "Boiling Point": "117-118 °C @ Press: 1.25 Torr"
    }
}