{
    "cas_no": "693-23-2",
    "key_name": "Dodecanedioic acid",
    "cn_name": "正十二烷二元酸;十二烷二酸;",
    "alternate_name": "Dodecanedioic acid;1,10-Decanedicarboxylic acid;1,12-Dodecanedioic acid;Decamethylenedicarboxylic acid;1,10-Dicarboxydecane;<em>n</em>-Dodecanedioic acid;SL-AH;Corfree M 2;<em>n</em>-Dodecane-α,ω-dioic acid;NSC 400242;LCA 141",
    "duplicated_cas_no": "142610-44-4;91485-80-2",
    "SMILES": "C(CC(O)=O)CCCCCCCCC(O)=O",
    "meta_data": {
        "InChI": "InChI=1S/C12H22O4/c13-11(14)9-7-5-3-1-2-4-6-8-10-12(15)16/h1-10H2,(H,13,14)(H,15,16)",
        "InChIKey": null,
        "Canonical SMILES": "O=C(O)CCCCCCCCCCC(=O)O",
        "Molecular Formula": "C<sub>12</sub>H<sub>22</sub>O<sub>4</sub>",
        "Molecular Mass": "230.30",
        "Boiling Point": "205-210 °C @ Press: 1 Torr",
        "Melting Point": "130-132 °C"
    }
}