{
    "cas_no": "1801-10-1",
    "key_name": "3-(Trifluoromethyl)benzamide",
    "cn_name": "3-(三氟甲基)苯甲酰胺;3-(三氟甲基)苯甲酰胺, 98+%;",
    "alternate_name": "Benzamide, 3-(trifluoromethyl)-;<em>m</em>-Toluamide, α,α,α-trifluoro-;3-(Trifluoromethyl)benzamide;α,α,α-Trifluoro-<em>m</em>-toluamide;<em>m</em>-Trifluoromethylbenzamide",
    "duplicated_cas_no": "",
    "SMILES": "C(F)(F)(F)C1=CC(C(N)=O)=CC=C1",
    "meta_data": {
        "InChI": "InChI=1S/C8H6F3NO/c9-8(10,11)6-3-1-2-5(4-6)7(12)13/h1-4H,(H2,12,13)",
        "InChIKey": null,
        "Canonical SMILES": "O=C(N)C1=CC=CC(=C1)C(F)(F)F",
        "Molecular Formula": "C<sub>8</sub>H<sub>6</sub>F<sub>3</sub>NO",
        "Molecular Mass": "189.13",
        "Melting Point": "121.5-122.0 °C"
    }
}