{
    "cas_no": "78-35-3",
    "key_name": "Linalyl isobutyrate",
    "cn_name": "2-甲基-1-乙烯基-1,5-二甲基-4-己烯醇丙酸酯;丁酸-1-乙烯基-1,5-二甲基-4-己烯基酯;",
    "alternate_name": "Propanoic acid, 2-methyl-, 1-ethenyl-1,5-dimethyl-4-hexen-1-yl ester;Isobutyric acid, 1,5-dimethyl-1-vinyl-4-hexenyl ester;Propanoic acid, 2-methyl-, 1-ethenyl-1,5-dimethyl-4-hexenyl ester;Isobutyric acid, linalyl ester;1,6-Octadien-3-ol, 3,7-dimethyl-, isobutyrate;Linalool isobutyrate;Linalyl isobutyrate;NSC 46145",
    "duplicated_cas_no": "94346-07-3",
    "SMILES": "C(OC(C(C)C)=O)(CCC=C(C)C)(C=C)C",
    "meta_data": {
        "InChI": "InChI=1S/C14H24O2/c1-7-14(6,10-8-9-11(2)3)16-13(15)12(4)5/h7,9,12H,1,8,10H2,2-6H3",
        "InChIKey": null,
        "Canonical SMILES": "O=C(OC(C=C)(C)CCC=C(C)C)C(C)C",
        "Molecular Formula": "C<sub>14</sub>H<sub>24</sub>O<sub>2</sub>",
        "Molecular Mass": "224.34",
        "Boiling Point": "63-65 °C @ Press: 0.1 Torr"
    }
}