{
    "cas_no": "34604-60-9",
    "key_name": "5-Hydroxypyrazine-2-carboxylic acid",
    "cn_name": "5-羟基吡嗪-2-羧酸;",
    "alternate_name": "2-Pyrazinecarboxylic acid, 4,5-dihydro-5-oxo-;Pyrazinecarboxylic acid, 4,5-dihydro-5-oxo-;Pyrazinecarboxylic acid, 5-hydroxy-;4,5-Dihydro-5-oxo-2-pyrazinecarboxylic acid;5-Hydroxypyrazinoic acid;5-Hydroxypyrazine-2-carboxylic acid;5-Oxo-4,5-dihydropyrazine-2-carboxylic acid",
    "duplicated_cas_no": "",
    "SMILES": "C(O)(=O)C1=CNC(=O)C=N1",
    "meta_data": {
        "InChI": "InChI=1S/C5H4N2O3/c8-4-2-6-3(1-7-4)5(9)10/h1-2H,(H,7,8)(H,9,10)",
        "InChIKey": null,
        "Canonical SMILES": "O=C(O)C=1N=CC(=O)NC1",
        "Molecular Formula": "C<sub>5</sub>H<sub>4</sub>N<sub>2</sub>O<sub>3</sub>",
        "Molecular Mass": "140.10",
        "Melting Point": "300 °C"
    }
}