{
    "cas_no": "1916-59-2",
    "key_name": "2-Aminophenoxazin-3-one",
    "cn_name": null,
    "alternate_name": "3<em>H</em>-Phenoxazin-3-one, 2-amino-;2-Amino-3<em>H</em>-phenoxazin-3-one;Questiomycin A;2-Aminophenoxazin-3-one;2-Aminophenoxazon;2-Amino-3-phenoxazone;2-Aminophenoxazone;AV Toxin C;<em>Acrospermum</em><em>viticola</em> toxin C;NSC 94945;Isophenoxazine",
    "duplicated_cas_no": "2954863-96-6",
    "SMILES": "NC1=CC=2C(OC=3C(N2)=CC=CC3)=CC1=O",
    "meta_data": {
        "InChI": "InChI=1S/C12H8N2O2/c13-7-5-9-12(6-10(7)15)16-11-4-2-1-3-8(11)14-9/h1-6H,13H2",
        "InChIKey": null,
        "Canonical SMILES": "O=C1C=C2OC=3C=CC=CC3N=C2C=C1N",
        "Molecular Formula": "C<sub>12</sub>H<sub>8</sub>N<sub>2</sub>O<sub>2</sub>",
        "Molecular Mass": "212.20",
        "Melting Point": "249-250 °C"
    }
}