{
    "cas_no": "88-60-8",
    "key_name": "3-Methyl-6-<em>tert</em>-butylphenol",
    "cn_name": "6-叔丁基间甲酚;6-叔丁基-3-甲基苯酚;",
    "alternate_name": "Phenol, 2-(1,1-dimethylethyl)-5-methyl-;<em>m</em>-Cresol, 6-<em>tert</em>-butyl-;2-(1,1-Dimethylethyl)-5-methylphenol;2-<em>tert</em>-Butyl-5-methylphenol;6-<em>tert</em>-Butyl-<em>m</em>-cresol;3-Methyl-6-<em>tert</em>-butylphenol;6-<em>tert</em>-Butyl-3-methylphenol;5-Methyl-2-<em>tert</em>-butylphenol;NSC 48467;6-<em>tert</em>-Butyl-3-cresol",
    "duplicated_cas_no": "",
    "SMILES": "C(C)(C)(C)C1=C(O)C=C(C)C=C1",
    "meta_data": {
        "InChI": "InChI=1S/C11H16O/c1-8-5-6-9(10(12)7-8)11(2,3)4/h5-7,12H,1-4H3",
        "InChIKey": null,
        "Canonical SMILES": "OC1=CC(=CC=C1C(C)(C)C)C",
        "Molecular Formula": "C<sub>11</sub>H<sub>16</sub>O",
        "Molecular Mass": "164.24",
        "Boiling Point": "224 °C @ Press: 760 Torr",
        "Melting Point": "46 °C",
        "Density": "0.922 g/cm³ @ Temp: 80 °C"
    }
}