{
    "cas_no": "7789-21-1",
    "key_name": "Fluorosulfuric acid",
    "cn_name": "氟磺酸;氟磺酸;",
    "alternate_name": "Fluorosulfuric acid;Fluosulfonic acid;Fluorosulfonic acid;Fluorosulfuric acid (HSO<sub>3</sub>F);Monofluorosulfuric acid;Fluosulfuric acid",
    "duplicated_cas_no": "1086196-04-4",
    "SMILES": "S(F)(=O)(=O)O",
    "meta_data": {
        "InChI": "InChI=1S/FHO3S/c1-5(2,3)4/h(H,2,3,4)",
        "InChIKey": null,
        "Canonical SMILES": "O=S(=O)(F)O",
        "Molecular Formula": "FHO<sub>3</sub>S",
        "Molecular Mass": "100.07",
        "Boiling Point": "163 °C @ Press: 760 Torr",
        "Melting Point": "-89 °C",
        "Density": "1.726 g/cm³ @ Temp: 25 °C"
    }
}