{
    "cas_no": "521-24-4",
    "key_name": "Sodium 1,2-naphthoquinone-4-sulfonate",
    "cn_name": "1,2-萘醌-4-磺酸钠;",
    "alternate_name": "1-Naphthalenesulfonic acid, 3,4-dihydro-3,4-dioxo-, sodium salt (1:1);1-Naphthalenesulfonic acid, 3,4-dihydro-3,4-dioxo-, sodium salt;β-Naphthoquinone-4-sulfonate sodium salt;Sodium 3,4-dihydro-3,4-dioxo-1-naphthalenesulfonate;Sodium β-naphthoquinone-4-sulfonate;Sodium 1,2-naphthoquinone-4-sulfonate;1,2-Naphthoquinone-4-sulfonic acid sodium salt;Sodium β-naphthoquinonesulfonate;1,2-Naphthoquinone-4-sodium sulfonate;Sodium 3,4-dioxo-1-naphthalenesulfonate;Folin reagent",
    "duplicated_cas_no": "872034-12-3;1632449-38-7",
    "SMILES": "S(=O)(=O)(O)C=1C=2C(C(=O)C(=O)C1)=CC=CC2.[Na]",
    "meta_data": {
        "InChI": "InChI=1S/C10H6O5S.Na/c11-8-5-9(16(13,14)15)6-3-1-2-4-7(6)10(8)12;/h1-5H,(H,13,14,15);",
        "InChIKey": null,
        "Canonical SMILES": "[Na].O=C1C=C(C=2C=CC=CC2C1=O)S(=O)(=O)O",
        "Molecular Formula": "C<sub>10</sub>H<sub>6</sub>O<sub>5</sub>S.Na",
        "Molecular Mass": "",
        "Melting Point": "287 °C (decomp)"
    }
}