{
    "cas_no": "57279-70-6",
    "key_name": "4-Bromo-2-ethoxy-1-nitrobenzene",
    "cn_name": null,
    "alternate_name": "Benzene, 4-bromo-2-ethoxy-1-nitro-;4-Bromo-2-ethoxy-1-nitrobenzene;4-(2-Bromoethoxy)-1-nitrobenzene;2-Nitro-5-bromophenetole;5-Bromo-2-nitrophenyl ethyl ether",
    "duplicated_cas_no": "",
    "SMILES": "N(=O)(=O)C1=C(OCC)C=C(Br)C=C1",
    "meta_data": {
        "InChI": "InChI=1S/C8H8BrNO3/c1-2-13-8-5-6(9)3-4-7(8)10(11)12/h3-5H,2H2,1H3",
        "InChIKey": null,
        "Canonical SMILES": "O=N(=O)C1=CC=C(Br)C=C1OCC",
        "Molecular Formula": "C<sub>8</sub>H<sub>8</sub>BrNO<sub>3</sub>",
        "Molecular Mass": "246.06",
        "Melting Point": "79.5-80.5 °C"
    }
}