{
    "cas_no": "6290-24-0",
    "key_name": "Benzoic acid, 2-ethoxy-, ethyl ester",
    "cn_name": "2-乙氧基苯甲酸乙酯;邻乙氧基苯甲酸乙酯;",
    "alternate_name": "Benzoic acid, 2-ethoxy-, ethyl ester;Benzoic acid, <em>o</em>-ethoxy-, ethyl ester;Ethyl 2-ethoxybenzoate;NSC 6584;2-Ethoxybenzoic acid ethyl ester",
    "duplicated_cas_no": "",
    "SMILES": "C(OCC)(=O)C1=C(OCC)C=CC=C1",
    "meta_data": {
        "InChI": "InChI=1S/C11H14O3/c1-3-13-10-8-6-5-7-9(10)11(12)14-4-2/h5-8H,3-4H2,1-2H3",
        "InChIKey": null,
        "Canonical SMILES": "O=C(OCC)C=1C=CC=CC1OCC",
        "Molecular Formula": "C<sub>11</sub>H<sub>14</sub>O<sub>3</sub>",
        "Molecular Mass": "194.23",
        "Boiling Point": "81 °C @ Press: 1 Torr"
    }
}