{
    "cas_no": "1467-40-9",
    "key_name": "1,5-Diphenyl-1,3,5-pentanetrione",
    "cn_name": null,
    "alternate_name": "1,3,5-Pentanetrione, 1,5-diphenyl-;1,5-Diphenyl-1,3,5-pentanetrione;2-Propanone, 1,3-dibenzoyl-;1,3-Dibenzoylacetone;NSC 154656;NSC 631644",
    "duplicated_cas_no": "",
    "SMILES": "C(CC(CC(=O)C1=CC=CC=C1)=O)(=O)C2=CC=CC=C2",
    "meta_data": {
        "InChI": "InChI=1S/C17H14O3/c18-15(11-16(19)13-7-3-1-4-8-13)12-17(20)14-9-5-2-6-10-14/h1-10H,11-12H2",
        "InChIKey": null,
        "Canonical SMILES": "O=C(C=1C=CC=CC1)CC(=O)CC(=O)C=2C=CC=CC2",
        "Molecular Formula": "C<sub>17</sub>H<sub>14</sub>O<sub>3</sub>",
        "Molecular Mass": "266.29",
        "Melting Point": "98 °C"
    }
}