{
    "cas_no": "26530-20-1",
    "key_name": "2-<em>n</em>-Octyl-4-isothiazolin-3-one",
    "cn_name": "N-辛基异噻唑啉酮;N-辛基-4-异噻唑啉-3-酮;",
    "alternate_name": "3(2<em>H</em>)-Isothiazolone, 2-octyl-;4-Isothiazolin-3-one, 2-octyl-;2-Octyl-3(2<em>H</em>)-isothiazolone;2-<em>n</em>-Octyl-4-isothiozolin-3-one;2-<em>n</em>-Octyl-3-isothiazolone;2-Octyl-3-isothiazolinone;Kathon LP Preservative;2-Octyl-3-isothiazolone;2-<em>n</em>-Octyl-4-isothiazolin-3-one;2-Octyl-4-isothiazolin-3-one;Skane M 8;RH 893;2-Octyl-4-isothiazoline-3-one;Octhilinone;Pancil;Micro-Chek 11;Micro-Chek 11D;Kathon SP 70;Kathon 893;Kathon LM;Skane 8;Pancil T;2-Octyl-4-isothiazolinone;Kathon 4200;2-<em>n</em>-Octylisothiazolin-3-one;Vinyzene IT 3000DIDP;Kathon 893F;Kathon 893T;A-DW;Ecoplast PA 20;Ultra-Fresh DM 25;Zonen 0/100;SD 888;4-Octylisothiazolin-3-one;Acticide 45;Acticide OTW;Microban LB 6;Zonen O 100;Rosima 243;Levanax BS 50;Biocut TR 120;OIT;Acticide WB 909;Acticide OTW 16;OTA 20;<em>n</em>-Octylisothiazolinone;M 8;Biotin T;OIT 99;Acticide OTA 20;OTW;Octylisothiazolinone;Acticide CSP;Skane M 8-2000;2-Octyl-2<em>H</em>-isothiazol-3-one;Mycomex M 210;Bitetrol T 40;2-<em>n</em>-Octyl-4-isothiazoline-3one",
    "duplicated_cas_no": "12673-72-2;53028-82-3;122667-23-6;245125-70-6;249757-59-3;1135442-68-0;1617530-25-2",
    "SMILES": "C(CCCCCCC)N1C(=O)C=CS1",
    "meta_data": {
        "InChI": "InChI=1S/C11H19NOS/c1-2-3-4-5-6-7-9-12-11(13)8-10-14-12/h8,10H,2-7,9H2,1H3",
        "InChIKey": null,
        "Canonical SMILES": "O=C1C=CSN1CCCCCCCC",
        "Molecular Formula": "C<sub>11</sub>H<sub>19</sub>NOS",
        "Molecular Mass": "213.34",
        "Boiling Point": "120 °C",
        "Melting Point": "&lt;25 °C"
    }
}