{
    "cas_no": "3972-56-3",
    "key_name": "1-Chloro-4-(1,1-dimethylethyl)benzene",
    "cn_name": "4-叔丁基氯化苯;对叔丁基氯苯;",
    "alternate_name": "Benzene, 1-chloro-4-(1,1-dimethylethyl)-;Benzene, 1-<em>tert</em>-butyl-4-chloro-;1-Chloro-4-(1,1-dimethylethyl)benzene;<em>p</em>-Chloro-<em>tert</em>-butylbenzene;1-<em>tert</em>-Butyl-4-chlorobenzene;<em>p</em>-<em>tert</em>-Butylchlorobenzene;4-<em>tert</em>-Butylchlorobenzene;4-Chloro-<em>tert</em>-butylbenzene;1-Chloro-4-<em>tert</em>-butylbenzene;4-<em>tert</em>-Butylphenyl chloride;4-<em>tert</em>-Butyl-1-chlorobenzene",
    "duplicated_cas_no": "",
    "SMILES": "C(C)(C)(C)C1=CC=C(Cl)C=C1",
    "meta_data": {
        "InChI": "InChI=1S/C10H13Cl/c1-10(2,3)8-4-6-9(11)7-5-8/h4-7H,1-3H3",
        "InChIKey": null,
        "Canonical SMILES": "ClC1=CC=C(C=C1)C(C)(C)C",
        "Molecular Formula": "C<sub>10</sub>H<sub>13</sub>Cl",
        "Molecular Mass": "168.66",
        "Boiling Point": "213 °C",
        "Melting Point": "23 °C",
        "Density": "1.0075 g/cm³ @ Temp: 18.5 °C"
    }
}