{
    "cas_no": "6754-20-7",
    "key_name": "Polygodial",
    "cn_name": null,
    "alternate_name": "1,2-Naphthalenedicarboxaldehyde, 1,4,4a,5,6,7,8,8a-octahydro-5,5,8a-trimethyl-, (1<em>R</em>,4a<em>S</em>,8a<em>S</em>)-;1,2-Naphthalenedicarboxaldehyde, 1α,4,4aα,5,6,7,8,8a-octahydro-5,5,8aβ-trimethyl-;1,2-Naphthalenedicarboxaldehyde, 1,4,4a,5,6,7,8,8a-octahydro-5,5,8a-trimethyl-, [1<em>R</em>-(1α,4aβ,8aα)]-;(1<em>R</em>,4a<em>S</em>,8a<em>S</em>)-1,4,4a,5,6,7,8,8a-Octahydro-5,5,8a-trimethyl-1,2-naphthalenedicarboxaldehyde;Tadeonal;Polygodial;(-)-Tadeonal;Drim-7-ene-11,12-dial;(-)-Polygodial;Poligodial",
    "duplicated_cas_no": "",
    "SMILES": "C[C@]12[C@@](CC=C(C=O)[C@@H]1C=O)(C(C)(C)CCC2)[H]",
    "meta_data": {
        "InChI": "InChI=1S/C15H22O2/c1-14(2)7-4-8-15(3)12(10-17)11(9-16)5-6-13(14)15/h5,9-10,12-13H,4,6-8H2,1-3H3/t12-,13-,15+/m0/s1",
        "InChIKey": null,
        "Canonical SMILES": "O=CC1=CCC2C(C)(C)CCCC2(C)C1C=O",
        "Molecular Formula": "C<sub>15</sub>H<sub>22</sub>O<sub>2</sub>",
        "Molecular Mass": "234.33",
        "Melting Point": "57 °C"
    }
}