{
    "cas_no": "137173-46-7",
    "key_name": "<em>N</em>-Dodecanoyl-<span class=\"text-smallcaps\">L</span>-homoserine lactone",
    "cn_name": null,
    "alternate_name": "Dodecanamide, <em>N</em>-[(3<em>S</em>)-tetrahydro-2-oxo-3-furanyl]-;Dodecanamide, <em>N</em>-(tetrahydro-2-oxo-3-furanyl)-, (<em>S</em>)-;<em>N</em>-[(3<em>S</em>)-Tetrahydro-2-oxo-3-furanyl]dodecanamide;<em>N</em>-Dodecanoyl-<span class=\"text-smallcaps\">L</span>-homoserine lactone;C12-HSL (autoinducer);(<em>S</em>)-<em>N</em>-(2-Oxotetrahydrofuran-3-yl)dodecanamide",
    "duplicated_cas_no": "",
    "SMILES": "N(C(CCCCCCCCCCC)=O)[C@@H]1C(=O)OCC1",
    "meta_data": {
        "InChI": "InChI=1S/C16H29NO3/c1-2-3-4-5-6-7-8-9-10-11-15(18)17-14-12-13-20-16(14)19/h14H,2-13H2,1H3,(H,17,18)/t14-/m0/s1",
        "InChIKey": null,
        "Canonical SMILES": "O=C(NC1C(=O)OCC1)CCCCCCCCCCC",
        "Molecular Formula": "C<sub>16</sub>H<sub>29</sub>NO<sub>3</sub>",
        "Molecular Mass": "283.41",
        "Melting Point": "128 °C"
    }
}