{
    "cas_no": "19244-98-5",
    "key_name": "Guanidinium bromide",
    "cn_name": null,
    "alternate_name": "Guanidine, hydrobromide (1:1);Guanidine, monohydrobromide;Guanidinium bromide;Guanidine hydrobromide",
    "duplicated_cas_no": "23918-44-7",
    "SMILES": "C(=N)(N)N.Br",
    "meta_data": {
        "InChI": "InChI=1S/CH5N3.BrH/c2-1(3)4;/h(H5,2,3,4);1H",
        "InChIKey": null,
        "Canonical SMILES": "Br.N=C(N)N",
        "Molecular Formula": "CH<sub>5</sub>N<sub>3</sub>.BrH",
        "Molecular Mass": "",
        "Melting Point": "178-180 °C"
    }
}