{
    "cas_no": "77341-67-4",
    "key_name": "Succinic acid menthol monoester",
    "cn_name": "琥珀酸单薄荷酯;5-甲基-2-(1-甲基乙基)-环己烷基单琥珀酸酯;",
    "alternate_name": "Butanedioic acid, 1-[(1<em>R</em>,2<em>S</em>,5<em>R</em>)-5-methyl-2-(1-methylethyl)cyclohexyl] ester;Butanedioic acid, mono[5-methyl-2-(1-methylethyl)cyclohexyl] ester, [1<em>R</em>-(1α,2β,5α)]-;Butanedioic acid, mono[(1<em>R</em>,2<em>S</em>,5<em>R</em>)-5-methyl-2-(1-methylethyl)cyclohexyl] ester;1-[(1<em>R</em>,2<em>S</em>,5<em>R</em>)-5-Methyl-2-(1-methylethyl)cyclohexyl] butanedioate;Physcool;Succinic acid menthol monoester;Physcool N 2188;FEMA 3810;Fema Gras 3810;Monomenthyl succinate",
    "duplicated_cas_no": "754938-59-5",
    "SMILES": "C(C)(C)[C@H]1[C@H](OC(CCC(O)=O)=O)C[C@H](C)CC1",
    "meta_data": {
        "InChI": "InChI=1S/C14H24O4/c1-9(2)11-5-4-10(3)8-12(11)18-14(17)7-6-13(15)16/h9-12H,4-8H2,1-3H3,(H,15,16)/t10-,11+,12-/m1/s1",
        "InChIKey": null,
        "Canonical SMILES": "O=C(O)CCC(=O)OC1CC(C)CCC1C(C)C",
        "Molecular Formula": "C<sub>14</sub>H<sub>24</sub>O<sub>4</sub>",
        "Molecular Mass": "256.34",
        "Melting Point": "60-62 °C"
    }
}