{
    "cas_no": "116081-18-6",
    "key_name": "6-Bromo-2-methyloxazolo[5,4-<em>b</em>]pyridine",
    "cn_name": null,
    "alternate_name": "Oxazolo[5,4-<em>b</em>]pyridine, 6-bromo-2-methyl-;6-Bromo-2-methyloxazolo[5,4-<em>b</em>]pyridine",
    "duplicated_cas_no": "",
    "SMILES": "CC=1OC=2C(N1)=CC(Br)=CN2",
    "meta_data": {
        "InChI": "InChI=1S/C7H5BrN2O/c1-4-10-6-2-5(8)3-9-7(6)11-4/h2-3H,1H3",
        "InChIKey": null,
        "Canonical SMILES": "BrC=1C=NC=2OC(=NC2C1)C",
        "Molecular Formula": "C<sub>7</sub>H<sub>5</sub>BrN<sub>2</sub>O",
        "Molecular Mass": "213.03",
        "Melting Point": "223-225 °C"
    }
}