{
    "cas_no": "4282-40-0",
    "key_name": "1-Iodoheptane",
    "cn_name": "1-碘庚烷;",
    "alternate_name": "Heptane, 1-iodo-;1-Iodoheptane;Heptyl iodide;<em>n</em>-Heptyl iodide;1-Heptyl iodide;NSC 7316;1-Iodo-<em>n</em>-heptane",
    "duplicated_cas_no": "",
    "SMILES": "C(CCCI)CCC",
    "meta_data": {
        "InChI": "InChI=1S/C7H15I/c1-2-3-4-5-6-7-8/h2-7H2,1H3",
        "InChIKey": null,
        "Canonical SMILES": "ICCCCCCC",
        "Molecular Formula": "C<sub>7</sub>H<sub>15</sub>I",
        "Molecular Mass": "226.10",
        "Boiling Point": "204 °C",
        "Melting Point": "-48.2 °C",
        "Density": "1.3774 g/cm³ @ Temp: 20 °C"
    }
}