{
    "cas_no": "85-36-9",
    "key_name": "Acetrizoic acid",
    "cn_name": "醋碘苯酸;3-乙酰氨基-2,4,6-三碘苯甲酸;",
    "alternate_name": "Benzoic acid, 3-(acetylamino)-2,4,6-triiodo-;Benzoic acid, 3-acetamido-2,4,6-triiodo-;3-(Acetylamino)-2,4,6-triiodobenzoic acid;3-Acetamido-2,4,6-triiodobenzoic acid;2,4,6-Triiodo-3-acetamidobenzoic acid;Acetrizoic acid;Urokon;3-Acetylamino-2,4,6-triiodobenzoic acid;Opacaron;Urokonic acid;MeSH ID: D000100",
    "duplicated_cas_no": "",
    "SMILES": "N(C(C)=O)C1=C(I)C(C(O)=O)=C(I)C=C1I",
    "meta_data": {
        "InChI": "InChI=1S/C9H6I3NO3/c1-3(14)13-8-5(11)2-4(10)6(7(8)12)9(15)16/h2H,1H3,(H,13,14)(H,15,16)",
        "InChIKey": null,
        "Canonical SMILES": "O=C(O)C=1C(I)=CC(I)=C(NC(=O)C)C1I",
        "Molecular Formula": "C<sub>9</sub>H<sub>6</sub>I<sub>3</sub>NO<sub>3</sub>",
        "Molecular Mass": "556.86",
        "Melting Point": "280-280.5 °C (decomp)"
    }
}