{
    "cas_no": "89-72-5",
    "key_name": "2-<em>sec</em>-Butylphenol",
    "cn_name": "2-特丁基苯酚;2-仲-丁基苯酚;",
    "alternate_name": "Phenol, 2-(1-methylpropyl)-;Phenol, <em>o</em>-<em>sec</em>-butyl-;2-(1-Methylpropyl)phenol;<em>o</em>-<em>sec</em>-Butylphenol;2-<em>sec</em>-Butylphenol;2-(2-Butyl)phenol;(±)-2-<em>sec</em>-Butylphenol;2-(Butan-2-yl)phenol;2-Butan-2-ylphenol",
    "duplicated_cas_no": "96346-15-5;28449-95-8",
    "SMILES": "C(CC)(C)C1=C(O)C=CC=C1",
    "meta_data": {
        "InChI": "InChI=1S/C10H14O/c1-3-8(2)9-6-4-5-7-10(9)11/h4-8,11H,3H2,1-2H3",
        "InChIKey": null,
        "Canonical SMILES": "OC=1C=CC=CC1C(C)CC",
        "Molecular Formula": "C<sub>10</sub>H<sub>14</sub>O",
        "Molecular Mass": "150.22",
        "Boiling Point": "224-237 °C",
        "Melting Point": "14 °C",
        "Density": "98.04 g/cm³ @ Temp: 25 °C"
    }
}