{
    "cas_no": "6959-66-6",
    "key_name": "2(1<em>H</em>)-Pyrimidinethione, 4-methyl-, hydrochloride (1:1)",
    "cn_name": null,
    "alternate_name": "2(1<em>H</em>)-Pyrimidinethione, 4-methyl-, hydrochloride (1:1);2-Pyrimidinethiol, 4-methyl-, monohydrochloride;2(1<em>H</em>)-Pyrimidinethione, 4-methyl-, monohydrochloride;2-Pyrimidinethiol, 4-methyl-, hydrochloride;2-Mercapto-4-methylpyrimidine hydrochloride;4-Methyl-2-pyrimidinethiol hydrochloride;2-Mercapto-4-methylpyrimidinium chloride;4-Methyl-2(1<em>H</em>)-pyrimidinethione hydrochloride;2-Mercapto-4-methylpyrimidine monohydrochloride",
    "duplicated_cas_no": "24057-60-1",
    "SMILES": "CC=1NC(=S)N=CC1.Cl",
    "meta_data": {
        "InChI": "InChI=1S/C5H6N2S.ClH/c1-4-2-3-6-5(8)7-4;/h2-3H,1H3,(H,6,7,8);1H",
        "InChIKey": null,
        "Canonical SMILES": "Cl.S=C1N=CC=C(N1)C",
        "Molecular Formula": "C<sub>5</sub>H<sub>6</sub>N<sub>2</sub>S.ClH",
        "Molecular Mass": "",
        "Melting Point": "259 °C"
    }
}