{
    "cas_no": "10137-67-4",
    "key_name": "Propanoic acid, 3-cyano-, ethyl ester",
    "cn_name": null,
    "alternate_name": "Propanoic acid, 3-cyano-, ethyl ester;Propionic acid, 3-cyano-, ethyl ester;3-Cyanopropionic acid, ethyl ester;Ethyl 3-cyanopropanoate;Ethyl 3-cyanopropionate;NSC 94973;3-Cyanopropanoic acid ethyl ester",
    "duplicated_cas_no": "",
    "SMILES": "C(CCC#N)(OCC)=O",
    "meta_data": {
        "InChI": "InChI=1S/C6H9NO2/c1-2-9-6(8)4-3-5-7/h2-4H2,1H3",
        "InChIKey": null,
        "Canonical SMILES": "N#CCCC(=O)OCC",
        "Molecular Formula": "C<sub>6</sub>H<sub>9</sub>NO<sub>2</sub>",
        "Molecular Mass": "127.14",
        "Boiling Point": "114-115 °C @ Press: 18 Torr"
    }
}