{
    "cas_no": "91-49-6",
    "key_name": "Butylacetanilide",
    "cn_name": "N-丁基乙酰苯胺;",
    "alternate_name": "Acetamide, <em>N</em>-butyl-<em>N</em>-phenyl-;Acetanilide, <em>N</em>-butyl-;<em>N</em>-Butyl-<em>N</em>-phenylacetamide;BAA;<em>N</em>-Butylacetanilide;Butylacetanilide;<em>N</em>-<em>n</em>-Butylacetanilide;NSC 7662",
    "duplicated_cas_no": "",
    "SMILES": "N(CCCC)(C(C)=O)C1=CC=CC=C1",
    "meta_data": {
        "InChI": "InChI=1S/C12H17NO/c1-3-4-10-13(11(2)14)12-8-6-5-7-9-12/h5-9H,3-4,10H2,1-2H3",
        "InChIKey": null,
        "Canonical SMILES": "O=C(N(C=1C=CC=CC1)CCCC)C",
        "Molecular Formula": "C<sub>12</sub>H<sub>17</sub>NO",
        "Molecular Mass": "191.27",
        "Boiling Point": "281 °C @ Press: 760 Torr",
        "Melting Point": "24.5 °C",
        "Density": "0.9912 g/cm³ @ Temp: 20 °C"
    }
}