{
    "cas_no": "215923-54-9",
    "key_name": "(2,3-Dihydro-1,4-benzodioxin-6-yl)-1-piperidinylmethanone",
    "cn_name": "CX-546; 1-(1,4-苯并二氧六环-6-基甲酰基)哌啶;",
    "alternate_name": "Methanone, (2,3-dihydro-1,4-benzodioxin-6-yl)-1-piperidinyl-;Piperidine, 1-[(2,3-dihydro-1,4-benzodioxin-6-yl)carbonyl]-;(2,3-Dihydro-1,4-benzodioxin-6-yl)-1-piperidinylmethanone;CX 546;BDP 17;GR 87;1-(2,3-Dihydro-1,4-benzodioxin-6-ylcarbonyl)piperidine;1-(2,3-Dihydro-1,4-benzodioxine-6-carbonyl)piperidine",
    "duplicated_cas_no": "205510-63-0",
    "SMILES": "C(=O)(C=1C=C2C(=CC1)OCCO2)N3CCCCC3",
    "meta_data": {
        "InChI": "InChI=1S/C14H17NO3/c16-14(15-6-2-1-3-7-15)11-4-5-12-13(10-11)18-9-8-17-12/h4-5,10H,1-3,6-9H2",
        "InChIKey": null,
        "Canonical SMILES": "O=C(C1=CC=C2OCCOC2=C1)N3CCCCC3",
        "Molecular Formula": "C<sub>14</sub>H<sub>17</sub>NO<sub>3</sub>",
        "Molecular Mass": "247.29",
        "Melting Point": "60-62 °C"
    }
}