{
    "cas_no": "61854-36-2",
    "key_name": "Demethoxycapillarisin",
    "cn_name": null,
    "alternate_name": "4<em>H</em>-1-Benzopyran-4-one, 5,7-dihydroxy-2-(4-hydroxyphenoxy)-;5,7-Dihydroxy-2-(4-hydroxyphenoxy)-4<em>H</em>-1-benzopyran-4-one;Demethoxycapillarisin;6-Demethoxycapillarisin",
    "duplicated_cas_no": "",
    "SMILES": "O=C1C=2C(OC(OC3=CC=C(O)C=C3)=C1)=CC(O)=CC2O",
    "meta_data": {
        "InChI": "InChI=1S/C15H10O6/c16-8-1-3-10(4-2-8)20-14-7-12(19)15-11(18)5-9(17)6-13(15)21-14/h1-7,16-18H",
        "InChIKey": null,
        "Canonical SMILES": "O=C1C=C(OC2=CC=C(O)C=C2)OC=3C=C(O)C=C(O)C13",
        "Molecular Formula": "C<sub>15</sub>H<sub>10</sub>O<sub>6</sub>",
        "Molecular Mass": "286.24",
        "Melting Point": "&gt;280 °C (decomp)"
    }
}