{
    "cas_no": "465-42-9",
    "key_name": "Capsanthin",
    "cn_name": "辣椒红;辣椒红;辣椒红/辣椒玉红素;辣椒红/辣椒质;辣椒紅素;Β-葫蘿蔔素;原維生素A;辣椒黄素;",
    "alternate_name": "β,κ-Caroten-6′-one, 3,3′-dihydroxy-, (3<em>R</em>,3′<em>S</em>,5′<em>R</em>)-;2,4,6,8,10,12,14,16,18-Nonadecanonaen-1-one, 19-(4-hydroxy-2,6,6-trimethyl-1-cyclohexen-1-yl)-1-(4-hydroxy-1,2,2-trimethylcyclopentyl)-4,8,13,17-tetramethyl-, (<em>all</em>-<em>E</em>)-;Capsanthin;2,4,6,8,10,12,14,16,18-Nonadecanonaen-1-one, 19-(4-hydroxy-2,6,6-trimethyl-1-cyclohexen-1-yl)-1-(5-hydroxy-1,2,2-trimethylcyclopentyl)-4,8,13,17-tetramethyl-;(3<em>R</em>,3′<em>S</em>,5′<em>R</em>)-3,3′-Dihydroxy-β,κ-caroten-6′-one;<em>all</em>-<em>trans</em>-Capsanthin;Orange Color 100OIL-EX;Color-Up;Capsanthal C;E 150;E 300;E 100;E 280",
    "duplicated_cas_no": "113359-44-7;1363-22-0;5957-29-9;47842-77-3",
    "SMILES": "C(/C=C/C(=C/C=C/C(=C/C=C/C=C(/C=C/C=C(/C=C/C=1C(C)(C)C[C@H](O)CC1C)\\C)\\C)/C)/C)(=O)[C@@]2(C)C(C)(C)C[C@H](O)C2",
    "meta_data": {
        "InChI": "InChI=1S/C40H56O3/c1-29(17-13-19-31(3)21-23-36-33(5)25-34(41)26-38(36,6)7)15-11-12-16-30(2)18-14-20-32(4)22-24-37(43)40(10)28-35(42)27-39(40,8)9/h11-24,34-35,41-42H,25-28H2,1-10H3/b12-11+,17-13+,18-14+,23-21+,24-22+,29-15+,30-16+,31-19+,32-20+/t34-,35+,40+/m1/s1",
        "InChIKey": null,
        "Canonical SMILES": "O=C(C=CC(=CC=CC(=CC=CC=C(C=CC=C(C=CC1=C(C)CC(O)CC1(C)C)C)C)C)C)C2(C)CC(O)CC2(C)C",
        "Molecular Formula": "C<sub>40</sub>H<sub>56</sub>O<sub>3</sub>",
        "Molecular Mass": "584.87",
        "Melting Point": "177-178 °C"
    }
}