{
    "cas_no": "107-71-1",
    "key_name": "<em>tert</em>-Butyl peroxyacetate",
    "cn_name": "过氧乙酸叔丁酯;",
    "alternate_name": "Ethaneperoxoic acid, 1,1-dimethylethyl ester;Peroxyacetic acid, <em>tert</em>-butyl ester;<em>tert</em>-Butyl peracetate;<em>tert</em>-Butyl peroxyacetate;Lupersol 70;Acetyl <em>tert</em>-butyl peroxide;Perbutyl A;Kayabutyl A;Trigonox F-C 50;Kayabutyl A 50T;Esperox 12MD;NSC 118417;Luperox 7M75;Trigonox F;Luperox 7M50;<em>tert</em>-Pentyl peroxy acetate;Lupersol 7M50",
    "duplicated_cas_no": "",
    "SMILES": "O(C(C)(C)C)OC(C)=O",
    "meta_data": {
        "InChI": "InChI=1S/C6H12O3/c1-5(7)8-9-6(2,3)4/h1-4H3",
        "InChIKey": null,
        "Canonical SMILES": "O=C(OOC(C)(C)C)C",
        "Molecular Formula": "C<sub>6</sub>H<sub>12</sub>O<sub>3</sub>",
        "Molecular Mass": "132.16",
        "Boiling Point": "42-43 °C @ Press: 11 Torr",
        "Density": "0.9415 g/cm³ @ Temp: 20 °C"
    }
}