{
    "cas_no": "120-71-8",
    "key_name": "2-Methoxy-5-methylaniline",
    "cn_name": "2-甲氧基-5-甲基苯胺;5-甲基邻茴香胺;3-氨基对甲苯甲醚;",
    "alternate_name": "Benzenamine, 2-methoxy-5-methyl-;<em>o</em>-Anisidine, 5-methyl-;2-Methoxy-5-methylbenzenamine;Cresidine;<em>p</em>-Cresidine;5-Methyl-<em>o</em>-anisidine;2-Methoxy-5-methylaniline;3-Amino-4-methoxytoluene;Krezidin;4-Methyl-2-aminoanisole;1-Amino-2-methoxy-5-methylbenzene;<em>m</em>-Amino-<em>p</em>-cresol methyl ether;NSC 406904;NSC 6162;5-Methyl-2-methoxyaniline;6-Methoxy-<em>m</em>-toluidine;3-Methyl-6-methoxyaniline;(2-Methoxy-5-methylphenyl)amine;2-Methoxy-5-methyl-phenylamine",
    "duplicated_cas_no": "",
    "SMILES": "O(C)C1=C(N)C=C(C)C=C1",
    "meta_data": {
        "InChI": "InChI=1S/C8H11NO/c1-6-3-4-8(10-2)7(9)5-6/h3-5H,9H2,1-2H3",
        "InChIKey": null,
        "Canonical SMILES": "O(C1=CC=C(C=C1N)C)C",
        "Molecular Formula": "C<sub>8</sub>H<sub>11</sub>NO",
        "Molecular Mass": "137.18",
        "Boiling Point": "235 °C",
        "Melting Point": "51.5 °C"
    }
}