{
    "cas_no": "123-72-8",
    "key_name": "Butanal",
    "cn_name": "丁醛;",
    "alternate_name": "Butanal;Butyraldehyde;Butal;Butaldehyde;Butyl aldehyde;<em>n</em>-Butyl aldehyde;Butyral;<em>n</em>-Butyraldehyde;Butyric aldehyde;Butyrylaldehyde;<em>n</em>-Butanal;Butanaldehyde;<em>n</em>-Butyric aldehyde;NSC 62779",
    "duplicated_cas_no": "",
    "SMILES": "C(CC)C=O",
    "meta_data": {
        "InChI": "InChI=1S/C4H8O/c1-2-3-4-5/h4H,2-3H2,1H3",
        "InChIKey": null,
        "Canonical SMILES": "O=CCCC",
        "Molecular Formula": "C<sub>4</sub>H<sub>8</sub>O",
        "Molecular Mass": "72.11",
        "Boiling Point": "74.8 °C",
        "Melting Point": "-99 °C",
        "Density": "0.8016 g/cm³ @ Temp: 20 °C"
    }
}