{
    "cas_no": "16239-18-2",
    "key_name": "1,6-Dibromo-2-naphthalenol",
    "cn_name": "1,6-二溴-2-萘酚;",
    "alternate_name": "2-Naphthalenol, 1,6-dibromo-;2-Naphthol, 1,6-dibromo-;1,6-Dibromo-2-naphthalenol;1,6-Dibromo-β-naphthol;1,6-Dibromo-2-naphthol;1,6-Dibromo-2-hydroxynaphthalene;2-Hydroxy-1,6-dibromonaphthalene;NSC 9870",
    "duplicated_cas_no": "",
    "SMILES": "BrC=1C2=C(C=C(Br)C=C2)C=CC1O",
    "meta_data": {
        "InChI": "InChI=1S/C10H6Br2O/c11-7-2-3-8-6(5-7)1-4-9(13)10(8)12/h1-5,13H",
        "InChIKey": null,
        "Canonical SMILES": "BrC1=CC=C2C(Br)=C(O)C=CC2=C1",
        "Molecular Formula": "C<sub>10</sub>H<sub>6</sub>Br<sub>2</sub>O",
        "Molecular Mass": "301.96",
        "Melting Point": "106 °C"
    }
}