{
    "cas_no": "1225-55-4",
    "key_name": "Protriptyline hydrochloride",
    "cn_name": null,
    "alternate_name": "5<em>H</em>-Dibenzo[<em>a</em>,<em>d</em>]cycloheptene-5-propanamine, <em>N</em>-methyl-, hydrochloride (1:1);5<em>H</em>-Dibenzo[<em>a</em>,<em>d</em>]cycloheptene-5-propylamine, <em>N</em>-methyl-, hydrochloride;5<em>H</em>-Dibenzo[<em>a</em>,<em>d</em>]cycloheptene-5-propanamine, <em>N</em>-methyl-, hydrochloride;MK-240;<em>N</em>-Methyl-5<em>H</em>-dibenzo[<em>a</em>,<em>d</em>]cycloheptene-5-propylamine hydrochloride;Normethyl EX4442;Protriptyline hydrochloride;Triptil Hydrochloride;Vivactil;Concordin;Maximed;Triptil;Protryptyline hydrochloride;Maximet",
    "duplicated_cas_no": "",
    "SMILES": "C(CCNC)C1C=2C(C=CC=3C1=CC=CC3)=CC=CC2.Cl",
    "meta_data": {
        "InChI": "InChI=1S/C19H21N.ClH/c1-20-14-6-11-19-17-9-4-2-7-15(17)12-13-16-8-3-5-10-18(16)19;/h2-5,7-10,12-13,19-20H,6,11,14H2,1H3;1H",
        "InChIKey": null,
        "Canonical SMILES": "Cl.C=1C=CC2=C(C1)C=CC=3C=CC=CC3C2CCCNC",
        "Molecular Formula": "C<sub>19</sub>H<sub>21</sub>N.ClH",
        "Molecular Mass": "",
        "Melting Point": "169-171 °C"
    }
}