{
    "cas_no": "368-77-4",
    "key_name": "3-(Trifluoromethyl)benzonitrile",
    "cn_name": "间三氟甲基苯腈;3-三氟甲基苯腈;",
    "alternate_name": "Benzonitrile, 3-(trifluoromethyl)-;<em>m</em>-Tolunitrile, α,α,α-trifluoro-;3-(Trifluoromethyl)benzonitrile;<em>m</em>-(Trifluoromethyl)benzonitrile;α,α,α-Trifluoro-<em>m</em>-tolunitrile;<em>m</em>-(Trifluoromethyl)cyanobenzene;1-Cyano-3-(trifluoromethyl)benzene;NSC 88314",
    "duplicated_cas_no": "",
    "SMILES": "C(F)(F)(F)C1=CC(C#N)=CC=C1",
    "meta_data": {
        "InChI": "InChI=1S/C8H4F3N/c9-8(10,11)7-3-1-2-6(4-7)5-12/h1-4H",
        "InChIKey": null,
        "Canonical SMILES": "N#CC1=CC=CC(=C1)C(F)(F)F",
        "Molecular Formula": "C<sub>8</sub>H<sub>4</sub>F<sub>3</sub>N",
        "Molecular Mass": "171.12",
        "Boiling Point": "189 °C",
        "Melting Point": "14.5 °C",
        "Density": "1.2821 g/cm³ @ Temp: 20 °C"
    }
}