{
    "cas_no": "59854-11-4",
    "key_name": "1,1-Dimethylethyl 3-hydroxypropanoate",
    "cn_name": null,
    "alternate_name": "Propanoic acid, 3-hydroxy-, 1,1-dimethylethyl ester;1,1-Dimethylethyl 3-hydroxypropanoate;3-Hydroxypropionic acid <em>tert</em>-butyl ester;<em>tert</em>-Butyl 3-hydroxypropionate;<em>tert</em>-Butyl 3-hydroxypropanoate;3-Hydroxypropionate tert-butyl ester;3-Hydroxypropanoic acid tert-butyl ester",
    "duplicated_cas_no": "",
    "SMILES": "C(OC(C)(C)C)(CCO)=O",
    "meta_data": {
        "InChI": "InChI=1S/C7H14O3/c1-7(2,3)10-6(9)4-5-8/h8H,4-5H2,1-3H3",
        "InChIKey": null,
        "Canonical SMILES": "O=C(OC(C)(C)C)CCO",
        "Molecular Formula": "C<sub>7</sub>H<sub>14</sub>O<sub>3</sub>",
        "Molecular Mass": "146.18",
        "Boiling Point": "37-38 °C @ Press: 2 Torr",
        "Density": "0.9561 g/cm³ @ Temp: 20 °C"
    }
}