{
    "cas_no": "64019-93-8",
    "key_name": "Dipivefrin hydrochloride",
    "cn_name": null,
    "alternate_name": "Propanoic acid, 2,2-dimethyl-, 1,1′-[4-[1-hydroxy-2-(methylamino)ethyl]-1,2-phenylene] ester, hydrochloride (1:1);Propanoic acid, 2,2-dimethyl-, 4-[1-hydroxy-2-(methylamino)ethyl]-1,2-phenylene ester, hydrochloride, (±)-;Propanoic acid, 2,2-dimethyl-, 4-[1-hydroxy-2-(methylamino)ethyl]-1,2-phenylene ester, hydrochloride;Dipivefrin hydrochloride;Pivalephrine;Diopine;D Epifrin;Propine;Diphemin;Dipivefrine hydrochloride",
    "duplicated_cas_no": "42145-93-7",
    "SMILES": "O(C(C(C)(C)C)=O)C1=C(OC(C(C)(C)C)=O)C=CC(C(CNC)O)=C1.Cl",
    "meta_data": {
        "InChI": "InChI=1S/C19H29NO5.ClH/c1-18(2,3)16(22)24-14-9-8-12(13(21)11-20-7)10-15(14)25-17(23)19(4,5)6;/h8-10,13,20-21H,11H2,1-7H3;1H",
        "InChIKey": null,
        "Canonical SMILES": "Cl.O=C(OC1=CC=C(C=C1OC(=O)C(C)(C)C)C(O)CNC)C(C)(C)C",
        "Molecular Formula": "C<sub>19</sub>H<sub>29</sub>NO<sub>5</sub>.ClH",
        "Molecular Mass": "",
        "Melting Point": "158-159 °C"
    }
}