{
    "cas_no": "5818-15-5",
    "key_name": "Propanoic acid, hydrazide",
    "cn_name": "丙酸肼;丙酸肼;",
    "alternate_name": "Propanoic acid, hydrazide;Propionic acid, hydrazide;Propionylhydrazine;Propanoic hydrazide;Propionic hydrazide;Propiohydrazide;<em>N</em>-Propanoylhydrazine;NSC 28448;Propionylhydrazide;Propionohydrazide;Propanehydrazide",
    "duplicated_cas_no": "",
    "SMILES": "C(CC)(NN)=O",
    "meta_data": {
        "InChI": "InChI=1S/C3H8N2O/c1-2-3(6)5-4/h2,4H2,1H3,(H,5,6)",
        "InChIKey": null,
        "Canonical SMILES": "O=C(NN)CC",
        "Molecular Formula": "C<sub>3</sub>H<sub>8</sub>N<sub>2</sub>O",
        "Molecular Mass": "88.11",
        "Melting Point": "179-180 °C"
    }
}