{
    "cas_no": "366-29-0",
    "key_name": "<em>N</em>,<em>N</em>,<em>N</em>′,<em>N</em>′-Tetramethylbenzidine",
    "cn_name": null,
    "alternate_name": "[1,1′-Biphenyl]-4,4′-diamine, <em>N</em><sup>4</sup>,<em>N</em><sup>4</sup>,<em>N</em><sup>4′</sup>,<em>N</em><sup>4′</sup>-tetramethyl-;Benzidine, <em>N</em>,<em>N</em>,<em>N</em>′,<em>N</em>′-tetramethyl-;[1,1′-Biphenyl]-4,4′-diamine, <em>N</em>,<em>N</em>,<em>N</em>′,<em>N</em>′-tetramethyl-;<em>N</em>,<em>N</em>,<em>N</em>′,<em>N</em>′-Tetramethylbenzidine;4,4′-Bis(<em>N</em>,<em>N</em>-dimethylamino)biphenyl;<em>N</em>,<em>N</em>,<em>N</em>′,<em>N</em>′-Tetramethyl-<em>p</em>,<em>p</em>′-benzidine;4,4′-Bis(dimethylamino)biphenyl;<em>N</em>,<em>N</em>,<em>N</em>′,<em>N</em>′-Tetramethyl[1,1′-biphenyl]-4,4′-diamine;TMB;NSC 433;4,4′-Bis(dimethylamino)-1,1′-biphenyl;<em>N</em>,<em>N</em>-Dimethyl-(4′-(dimethylamino)biphenyl-4-yl)amine;<em>N</em><sup>4</sup>,<em>N</em><sup>4</sup>,<em>N</em><sup>4</sup>′,<em>N</em><sup>4</sup>′-Tetramethyl[1,1′-biphenyl]-4,4′-diamine",
    "duplicated_cas_no": "",
    "SMILES": "N(C)(C)C1=CC=C(C=C1)C2=CC=C(N(C)C)C=C2",
    "meta_data": {
        "InChI": "InChI=1S/C16H20N2/c1-17(2)15-9-5-13(6-10-15)14-7-11-16(12-8-14)18(3)4/h5-12H,1-4H3",
        "InChIKey": null,
        "Canonical SMILES": "C=1C=C(C=CC1C=2C=CC(=CC2)N(C)C)N(C)C",
        "Molecular Formula": "C<sub>16</sub>H<sub>20</sub>N<sub>2</sub>",
        "Molecular Mass": "240.34",
        "Melting Point": "194 °C"
    }
}