{
    "cas_no": "626-55-1",
    "key_name": "3-Bromopyridine",
    "cn_name": "3-溴吡啶;",
    "alternate_name": "Pyridine, 3-bromo-;3-Bromopyridine;3-Pyridyl bromide;NSC 3974;<em>m</em>-Bromopyridine;5-Bromopyridine;Pyridin-3-yl bromide",
    "duplicated_cas_no": "",
    "SMILES": "BrC=1C=CC=NC1",
    "meta_data": {
        "InChI": "InChI=1S/C5H4BrN/c6-5-2-1-3-7-4-5/h1-4H",
        "InChIKey": null,
        "Canonical SMILES": "BrC=1C=NC=CC1",
        "Molecular Formula": "C<sub>5</sub>H<sub>4</sub>BrN",
        "Molecular Mass": "158.00",
        "Boiling Point": "173 °C",
        "Melting Point": "-27.3 °C"
    }
}