{
    "cas_no": "3470-98-2",
    "key_name": "<em>N</em>-Butyl-2-pyrrolidone",
    "cn_name": "1-丁基-2-吡咯烷酮;N-正丁基吡咯烷酮;",
    "alternate_name": "2-Pyrrolidinone, 1-butyl-;1-Butyl-2-pyrrolidinone;<em>N</em>-Butyl-2-pyrrolidone;<em>N</em>-Butylpyrrolidinone;<em>N</em>-Butyl-2-pyrrolidinone;<em>N</em>-Butylpyrrolidone;1-Butyl-2-pyrrolidone;<em>N</em>-Butylbutyrolactam;Genagen NBP;<em>N</em>-Butyl-γ-butyrolactam;Tamisolv NxG",
    "duplicated_cas_no": "",
    "SMILES": "C(CCC)N1C(=O)CCC1",
    "meta_data": {
        "InChI": "InChI=1S/C8H15NO/c1-2-3-6-9-7-4-5-8(9)10/h2-7H2,1H3",
        "InChIKey": null,
        "Canonical SMILES": "O=C1N(CCC1)CCCC",
        "Molecular Formula": "C<sub>8</sub>H<sub>15</sub>NO",
        "Molecular Mass": "141.21",
        "Boiling Point": "121 °C @ Press: 16 Torr",
        "Density": "0.964 g/cm³ @ Temp: 20 °C"
    }
}