{
    "cas_no": "5874-57-7",
    "key_name": "<span class=\"text-smallcaps\">D</span>-Serine, methyl ester, hydrochloride (1:1)",
    "cn_name": "D-丝氨酸甲酯盐酸盐;",
    "alternate_name": "<span class=\"text-smallcaps\">D</span>-Serine, methyl ester, hydrochloride (1:1);Serine, methyl ester, hydrochloride, <span class=\"text-smallcaps\">D</span>-;<span class=\"text-smallcaps\">D</span>-Serine, methyl ester, hydrochloride;Methyl <span class=\"text-smallcaps\">D</span>-serinate hydrochloride;(<em>R</em>)-2-Amino-3-hydroxypropionic acid methyl ester hydrochloride;(<em>R</em>)-Methyl 2-amino-3-hydroxypropanoate hydrochloride;(2R)-3-Hydroxy-l-methoxy-l-oxopropan-2-aminium chloride",
    "duplicated_cas_no": "",
    "SMILES": "[C@H](C(OC)=O)(CO)N.Cl",
    "meta_data": {
        "InChI": "InChI=1S/C4H9NO3.ClH/c1-8-4(7)3(5)2-6;/h3,6H,2,5H2,1H3;1H/t3-;/m1./s1",
        "InChIKey": null,
        "Canonical SMILES": "Cl.O=C(OC)C(N)CO",
        "Molecular Formula": "C<sub>4</sub>H<sub>9</sub>NO<sub>3</sub>.ClH",
        "Molecular Mass": "",
        "Melting Point": "152-157 °C"
    }
}