{
    "cas_no": "623-33-6",
    "key_name": "Glycine ethyl ester hydrochloride",
    "cn_name": "甘氨酸乙酯盐酸盐;",
    "alternate_name": "Glycine, ethyl ester, hydrochloride (1:1);Glycine, ethyl ester, hydrochloride;Ethyl glycinate hydrochloride;Glycine hydrochloride ethyl ester;Ethyl aminoacetate hydrochloride;Glycine ethyl ester monohydrochloride;Ethyl 2-aminoacetate hydrochloride;Glycine ethyl ester hydrochloride salt;Aminoacetic acid ethyl ester hydrochloride;281: PN: US20050107325 PAGE: 127 claimed protein;Glycine ethyl ether hydrochloride;279: PN: US20070105806 PAGE: 26 claimed protein;(2-Ethoxy-2-oxoethyl)ammonium chloride;27: PN: WO2010042547 PAGE: 47 claimed protein;<span class=\"text-smallcaps\">L</span>-Glycine ether ester hydrochloride;Glycine ethyl ester hydrochloride;2-Ethoxy-2-oxoethan-1-aminium chloride",
    "duplicated_cas_no": "69808-67-9;89004-43-3;2365110-08-1",
    "SMILES": "C(OCC)(CN)=O.Cl",
    "meta_data": {
        "InChI": "InChI=1S/C4H9NO2.ClH/c1-2-7-4(6)3-5;/h2-3,5H2,1H3;1H",
        "InChIKey": null,
        "Canonical SMILES": "Cl.O=C(OCC)CN",
        "Molecular Formula": "C<sub>4</sub>H<sub>9</sub>NO<sub>2</sub>.ClH",
        "Molecular Mass": "",
        "Melting Point": "145.2 °C",
        "Density": "1.371 g/cm³"
    }
}