{
    "cas_no": "4431-83-8",
    "key_name": "2,5,7,10-Tetraoxaundecane",
    "cn_name": "双(2-甲氧基乙氧基)甲烷;双(2-甲氧基乙氧基)甲烷;",
    "alternate_name": "2,5,7,10-Tetraoxaundecane;Methane, bis(2-methoxyethoxy)-;Ethylene glycol monomethyl ether formal;Bis(2-methoxyethoxy)methane;Formaldehyde bis(2-methoxyethyl) acetal;NSC 5225;1-Methoxy-2-(2-methoxyethoxymethoxy)ethane",
    "duplicated_cas_no": "",
    "SMILES": "C(OCCOC)OCCOC",
    "meta_data": {
        "InChI": "InChI=1S/C7H16O4/c1-8-3-5-10-7-11-6-4-9-2/h3-7H2,1-2H3",
        "InChIKey": null,
        "Canonical SMILES": "O(C)CCOCOCCOC",
        "Molecular Formula": "C<sub>7</sub>H<sub>16</sub>O<sub>4</sub>",
        "Molecular Mass": "164.20",
        "Boiling Point": "100 °C @ Press: 22 Torr",
        "Density": "0.9947 g/cm³ @ Temp: 20 °C"
    }
}