{
    "cas_no": "7570-45-8",
    "key_name": "9-Ethyl-3-carbazolecarboxaldehyde",
    "cn_name": "N-乙基咔唑-3-甲醛;",
    "alternate_name": "9<em>H</em>-Carbazole-3-carboxaldehyde, 9-ethyl-;Carbazole-3-carboxaldehyde, 9-ethyl-;9-Ethyl-9<em>H</em>-carbazole-3-carboxaldehyde;<em>N</em>-Ethylcarbazole-3-carboxaldehyde;<em>N</em>-Ethyl-3-formylcarbazole;3-Formyl-<em>N</em>-ethylcarbazole;9-Ethyl-3-carbazolecarboxaldehyde;3-Formyl-9-ethylcarbazole;<em>N</em>-Ethylcarbazol-3-aldehyde;9-Ethyl-3-formylcarbazole;NSC 231558;<em>N</em>-Ethyl-9<em>H</em>-carbazole-3-aldehyde;9-Ethyl-3-formyl-9<em>H</em>-carbazole;<em>N</em>-Ethylcarbazole-3-aldehyde;9-Ethyl-9<em>H</em>-carbazole-3-aldehyde;9-Ethylcarbazole-3-carbaldehyde;9-Ethyl-9<em>H</em>-carbazole-3-carbaldehyde;10-Ethyl-10<em>H</em>-carbazole-3-carbaldehyede",
    "duplicated_cas_no": "1001099-83-7",
    "SMILES": "C(C)N1C=2C(C=3C1=CC=CC3)=CC(C=O)=CC2",
    "meta_data": {
        "InChI": "InChI=1S/C15H13NO/c1-2-16-14-6-4-3-5-12(14)13-9-11(10-17)7-8-15(13)16/h3-10H,2H2,1H3",
        "InChIKey": null,
        "Canonical SMILES": "O=CC1=CC=C2C(=C1)C=3C=CC=CC3N2CC",
        "Molecular Formula": "C<sub>15</sub>H<sub>13</sub>NO",
        "Molecular Mass": "223.27",
        "Melting Point": "88 °C"
    }
}