{
    "cas_no": "5145-99-3",
    "key_name": "2-(Ethylthio)propane",
    "cn_name": "乙基异丙基硫醚;",
    "alternate_name": "Propane, 2-(ethylthio)-;Sulfide, ethyl isopropyl;2-(Ethylthio)propane;Ethyl isopropyl sulfide;Isopropyl ethyl sulfide;NSC 163314;2-Ethylsulfanylpropane",
    "duplicated_cas_no": "",
    "SMILES": "S(C(C)C)CC",
    "meta_data": {
        "InChI": "InChI=1S/C5H12S/c1-4-6-5(2)3/h5H,4H2,1-3H3",
        "InChIKey": null,
        "Canonical SMILES": "S(CC)C(C)C",
        "Molecular Formula": "C<sub>5</sub>H<sub>12</sub>S",
        "Molecular Mass": "104.21",
        "Boiling Point": "107.5 °C",
        "Melting Point": "-122.2 °C"
    }
}