{
    "cas_no": "126-29-4",
    "key_name": "Violaxanthin",
    "cn_name": "紫黄素;",
    "alternate_name": "β,β-Carotene-3,3′-diol, 5,6:5′,6′-diepoxy-5,5′,6,6′-tetrahydro-, (3<em>S</em>,3′<em>S</em>,5<em>R</em>,5′<em>R</em>,6<em>S</em>,6′<em>S</em>)-;β-Carotene-3,3′-diol, 5,6:5′,6′-diepoxy-5,5′,6,6′-tetrahydro-, <em>all</em>-<em>trans</em>-;β-Carotene-3,3′-diol, 5,6:5′,6′-diepoxy-5,5′,6,6′-tetrahydro-;7-Oxabicyclo[4.1.0]heptane, β,β-carotene-3,3′-diol deriv.;(3<em>S</em>,3′<em>S</em>,5<em>R</em>,5′<em>R</em>,6<em>S</em>,6′<em>S</em>)-5,6:5′,6′-Diepoxy-5,5′,6,6′-tetrahydro-β,β-carotene-3,3′-diol;Violaxanthin, <em>all</em>-<em>trans</em>-;Violaxanthin;<em>all</em>-<em>trans</em>-Violaxanthin;<em>trans</em>-Violaxanthin;C Orange 15;<em>all</em>-<em>E</em>-Violaxanthin;E 161e;<em>anti</em>,<em>anti</em>-Violaxanthin",
    "duplicated_cas_no": "29246-93-3",
    "SMILES": "C(=C/C(=C/C=C/C(=C/C=C/C=C(/C=C/C=C(/C=C/[C@]12[C@](C)(O1)C[C@@H](O)CC2(C)C)\\C)\\C)/C)/C)\\[C@]34[C@](C)(O3)C[C@@H](O)CC4(C)C",
    "meta_data": {
        "InChI": "InChI=1S/C40H56O4/c1-29(17-13-19-31(3)21-23-39-35(5,6)25-33(41)27-37(39,9)43-39)15-11-12-16-30(2)18-14-20-32(4)22-24-40-36(7,8)26-34(42)28-38(40,10)44-40/h11-24,33-34,41-42H,25-28H2,1-10H3/b12-11+,17-13+,18-14+,23-21+,24-22+,29-15+,30-16+,31-19+,32-20+/t33-,34-,37+,38+,39-,40-/m0/s1",
        "InChIKey": null,
        "Canonical SMILES": "OC1CC2(OC2(C=CC(=CC=CC(=CC=CC=C(C=CC=C(C=CC34OC4(C)CC(O)CC3(C)C)C)C)C)C)C(C)(C)C1)C",
        "Molecular Formula": "C<sub>40</sub>H<sub>56</sub>O<sub>4</sub>",
        "Molecular Mass": "600.87",
        "Melting Point": "208 °C"
    }
}