{
    "cas_no": "111-20-6",
    "key_name": "Sebacic acid",
    "cn_name": "癸二酸;皮脂酸;",
    "alternate_name": "Decanedioic acid;Sebacic acid;1,8-Octanedicarboxylic acid;1,10-Decanedioic acid;<em>n</em>-Decanedioic acid;NSC 19492;NSC 97405;Epinal NFH 10.50B10.00",
    "duplicated_cas_no": "3038344-70-3",
    "SMILES": "C(CC(O)=O)CCCCCCC(O)=O",
    "meta_data": {
        "InChI": "InChI=1S/C10H18O4/c11-9(12)7-5-3-1-2-4-6-8-10(13)14/h1-8H2,(H,11,12)(H,13,14)",
        "InChIKey": null,
        "Canonical SMILES": "O=C(O)CCCCCCCCC(=O)O",
        "Molecular Formula": "C<sub>10</sub>H<sub>18</sub>O<sub>4</sub>",
        "Molecular Mass": "202.25",
        "Boiling Point": "294.5 °C",
        "Melting Point": "130.8 °C",
        "Density": "1.231 g/cm³"
    }
}