{
    "cas_no": "5593-70-4",
    "key_name": "Titanium tetrabutoxide",
    "cn_name": "钛酸四丁酯;",
    "alternate_name": "1-Butanol, titanium(4+) salt (4:1);Butyl alcohol, titanium(4+) salt;1-Butanol, titanium(4+) salt;Butyl titanate(IV);Butyl titanate(IV) ((BuO)<sub>4</sub>Ti);Titanium butoxide (Ti(OBu)<sub>4</sub>);Titanium, tetrabutoxy-;Butyl orthotitanate;Titanium tetrabutoxide;Tetrabutoxytitanium;Titanium butoxide;Titanium tetrabutylate;Tetrabutyl orthotitanate;Tyzor TBT;Titanium(4+) butoxide;B 1;Orgatix TA 25;Tetra-<em>n</em>-butoxytitanium;Titanium <em>n</em>-butoxide;Titanium tetrakis(butoxide);Titanium(IV) <em>n</em>-butoxide;Tetra-<em>n</em>-butyl titanate;Titanium tetra-<em>n</em>-butoxide;TBT 100;<em>n</em>-Butanol titanium salt;1-Butanol titanium salt (4:1);Tetra-<em>n</em>-butyl orthotitanate;Titanium(IV) butoxide;TBT;Orgatix T 25;<em>n</em>-Butyl titanate;Tetrabutyl titanate;Tilcom TNBT;Tetrakis(butanolato)titanium;TA 25;Tetrabutoxytitanium(IV);Vertec TNBT;Tyzor TNBT;TBT-B 1;AKT 850;Titanium tetrakis(1-butoxide);Tyzor BTM;Tyzor TNTB;Titanium tetra-<em>n</em>-butylate;Orgatix TA 21;Tetrabutyl titantate;TA 21;Titanium tetrabutanolate;Tytan TNBT;TNBT;T 818870;D 25 (curing accelerator);D 25;Carbon titanium hydride hydroxide (C<sub>16</sub>TiH<sub>32</sub>(OH)<sub>4</sub>);T 104104;Butyl alcohol, titanium(4+) salt (4:1);Tizor TNBT",
    "duplicated_cas_no": "757-47-1;1336-30-7;15821-58-6;26198-43-6;59978-00-6;75659-54-0;104183-13-3;106206-82-0;114486-31-6;118547-86-7;124760-72-1;153313-64-5;156138-67-9;159179-54-1;176679-99-5;184529-19-9;188622-64-2;210407-19-5;216859-05-1;250741-36-7;597533-81-8;1352435-28-9;1449684-78-9;1874280-36-0;2241760-48-3;2691109-76-7;2767341-10-4;2791409-75-9",
    "SMILES": "C(CC)CO.[Ti]",
    "meta_data": {
        "InChI": "InChI=1S/C4H10O.Ti/c1-2-3-4-5;/h5H,2-4H2,1H3;",
        "InChIKey": null,
        "Canonical SMILES": "[Ti].OCCCC",
        "Molecular Formula": "C<sub>4</sub>H<sub>10</sub>O.<sup>1</sup>/<sub>4</sub>Ti",
        "Molecular Mass": "",
        "Boiling Point": "312 °C",
        "Melting Point": "-55 °C",
        "Density": "0.998 g/cm³ @ Temp: 20 °C"
    }
}