{
    "cas_no": "838-57-3",
    "key_name": "Ethyl (4-nitrobenzoyl)acetate",
    "cn_name": null,
    "alternate_name": "Benzenepropanoic acid, 4-nitro-β-oxo-, ethyl ester;Acetic acid, (<em>p</em>-nitrobenzoyl)-, ethyl ester;Ethyl (<em>p</em>-nitrobenzoyl)acetate;(<em>p</em>-Nitrobenzoyl)acetic acid ethyl ester;Ethyl (4-nitrobenzoyl)acetate;(4-Nitrobenzoyl)acetic acid ethyl ester;Ethyl 3-(4-nitrophenyl)-3-oxopropanoate;4-Nitro-β-oxobenzenepropanoic acid ethyl ester;NSC 62134;Ethyl 2-(4-nitrobenzoyl)acetate;Ethyl 3-(4-nitrophenyl)-3-oxopropionate;Ethyl 3-oxo-3-(4-nitrophenyl)propanoate;3-Oxo-3-(4-nitrophenyl)propionic acid ethyl ester;3-(4-Nitrophenyl)-3-oxopropionic acid ethyl ester",
    "duplicated_cas_no": "",
    "SMILES": "C(CC(OCC)=O)(=O)C1=CC=C(N(=O)=O)C=C1",
    "meta_data": {
        "InChI": "InChI=1S/C11H11NO5/c1-2-17-11(14)7-10(13)8-3-5-9(6-4-8)12(15)16/h3-6H,2,7H2,1H3",
        "InChIKey": null,
        "Canonical SMILES": "O=C(OCC)CC(=O)C1=CC=C(C=C1)N(=O)=O",
        "Molecular Formula": "C<sub>11</sub>H<sub>11</sub>NO<sub>5</sub>",
        "Molecular Mass": "237.21",
        "Melting Point": "73-74 °C"
    }
}