{
    "cas_no": "614-10-8",
    "key_name": "<em>N</em>-(2-Methylphenyl)hydrazinecarbothioamide",
    "cn_name": "4-2-甲氧基苯基-3-氨基硫脲;",
    "alternate_name": "Hydrazinecarbothioamide, <em>N</em>-(2-methylphenyl)-;Semicarbazide, 3-thio-4-<em>o</em>-tolyl-;<em>N</em>-(2-Methylphenyl)hydrazinecarbothioamide;3-Thio-4-<em>o</em>-tolylsemicarbazide;4-<em>o</em>-Tolylthiosemicarbazide;4-<em>o</em>-Tolyl-3-thiosemicarbazide;4-(2-Methylphenyl)thiosemicarbazide;4-(<em>o</em>-Methylphenyl)thiosemicarbazide;NSC 97210;2-Methylphenylthiosemicarbazide;<em>N</em>-(2-Methylphenyl)thiosemicarbazide;4-(2-Methylphenyl)-3-thiosemicarbazide;3-Amino-1-(2-methylphenyl)thiourea",
    "duplicated_cas_no": "",
    "SMILES": "N(C(NN)=S)C1=C(C)C=CC=C1",
    "meta_data": {
        "InChI": "InChI=1S/C8H11N3S/c1-6-4-2-3-5-7(6)10-8(12)11-9/h2-5H,9H2,1H3,(H2,10,11,12)",
        "InChIKey": null,
        "Canonical SMILES": "S=C(NN)NC=1C=CC=CC1C",
        "Molecular Formula": "C<sub>8</sub>H<sub>11</sub>N<sub>3</sub>S",
        "Molecular Mass": "181.26",
        "Melting Point": "148 °C"
    }
}