{
    "cas_no": "77174-66-4",
    "key_name": "Croconazole hydrochloride",
    "cn_name": "盐酸氯康唑;1-[1-[2-[(3-氯苯基)甲氧基]苯基]乙烯基]咪唑盐酸盐;",
    "alternate_name": "1<em>H</em>-Imidazole, 1-[1-[2-[(3-chlorophenyl)methoxy]phenyl]ethenyl]-, hydrochloride (1:1);1<em>H</em>-Imidazole, 1-[1-[2-[(3-chlorophenyl)methoxy]phenyl]ethenyl]-, monohydrochloride;710674S;Croconazole hydrochloride;Croconazole monohydrochloride;Pilzcin",
    "duplicated_cas_no": "99465-73-3",
    "SMILES": "C(=C)(C1=C(OCC2=CC(Cl)=CC=C2)C=CC=C1)N3C=CN=C3.Cl",
    "meta_data": {
        "InChI": "InChI=1S/C18H15ClN2O.ClH/c1-14(21-10-9-20-13-21)17-7-2-3-8-18(17)22-12-15-5-4-6-16(19)11-15;/h2-11,13H,1,12H2;1H",
        "InChIKey": null,
        "Canonical SMILES": "Cl.ClC1=CC=CC(=C1)COC=2C=CC=CC2C(=C)N3C=NC=C3",
        "Molecular Formula": "C<sub>18</sub>H<sub>15</sub>ClN<sub>2</sub>O.ClH",
        "Molecular Mass": "",
        "Melting Point": "148.5-150 °C"
    }
}