{
    "cas_no": "882-36-0",
    "key_name": "3-Oxo-<em>N</em>-(phenylmethyl)butanamide",
    "cn_name": "乙酰乙酰苄胺;",
    "alternate_name": "Butanamide, 3-oxo-<em>N</em>-(phenylmethyl)-;Acetoacetamide, <em>N</em>-benzyl-;3-Oxo-<em>N</em>-(phenylmethyl)butanamide;Acetoacetobenzylamide;<em>N</em>-Benzylacetoacetamide;NSC 60240",
    "duplicated_cas_no": "",
    "SMILES": "C(NC(CC(C)=O)=O)C1=CC=CC=C1",
    "meta_data": {
        "InChI": "InChI=1S/C11H13NO2/c1-9(13)7-11(14)12-8-10-5-3-2-4-6-10/h2-6H,7-8H2,1H3,(H,12,14)",
        "InChIKey": null,
        "Canonical SMILES": "O=C(NCC=1C=CC=CC1)CC(=O)C",
        "Molecular Formula": "C<sub>11</sub>H<sub>13</sub>NO<sub>2</sub>",
        "Molecular Mass": "191.23",
        "Melting Point": "101-102 °C"
    }
}