{
    "cas_no": "477-30-5",
    "key_name": "Demecolcine",
    "cn_name": "脱羰秋水仙碱;N-脱乙酰-N-甲基秋水仙碱;",
    "alternate_name": "Benzo[<em>a</em>]heptalen-9(5<em>H</em>)-one, 6,7-dihydro-1,2,3,10-tetramethoxy-7-(methylamino)-, (7<em>S</em>)-;Colchamine;Colchicine, <em>N</em>-deacetyl-<em>N</em>-methyl-;Benzo[<em>a</em>]heptalen-9(5<em>H</em>)-one, 6,7-dihydro-1,2,3,10-tetramethoxy-7-(methylamino)-, (<em>S</em>)-;Colchicine, <em>N</em>-deacetyl-<em>N</em>-methyl-, (-)-;(7<em>S</em>)-6,7-Dihydro-1,2,3,10-tetramethoxy-7-(methylamino)benzo[<em>a</em>]heptalen-9(5<em>H</em>)-one;Colcemid;Deacetylmethylcolchicine;<em>N</em>-Deacetyl-<em>N</em>-methylcolchicine;Demecolcin;Demecolcine;Deacetyl-<em>N</em>-methylcolchicine;<em>N</em>-Desacetyl-<em>N</em>-methylcolchicine;Desmecolcine;<em>N</em>-Methyl-<em>N</em>-desacetylcolchicine;Santavy's substance F;Substance F;Omaine;<em>N</em>-Methyl-<em>N</em>-deacetylcolchicine;Alkaloid H 3, from <em>Colchicum</em><em>antumnale</em>;Desacetylmethylcolchicine;Kolchamin;Colchamin;Ciba 12669A;NSC 3096;Omain;<em>N</em>-Methyltri-<em>O</em>-methylcolchicinic acid;(-)-Colchamine;(-)-Demecolcine;C 12669;Reichstein's F;(7S)-1,2,3,10-Tetramethoxy-7-(methylamino)-6,7-dihydro-5<em>H</em>-benzo[<em>a</em>]heptalen-9-one",
    "duplicated_cas_no": "",
    "SMILES": "O(C)C1=C2C=3C([C@@H](NC)CCC2=CC(OC)=C1OC)=CC(=O)C(OC)=CC3",
    "meta_data": {
        "InChI": "InChI=1S/C21H25NO5/c1-22-15-8-6-12-10-18(25-3)20(26-4)21(27-5)19(12)13-7-9-17(24-2)16(23)11-14(13)15/h7,9-11,15,22H,6,8H2,1-5H3/t15-/m0/s1",
        "InChIKey": null,
        "Canonical SMILES": "O=C1C=C2C(=CC=C1OC)C3=C(OC)C(OC)=C(OC)C=C3CCC2NC",
        "Molecular Formula": "C<sub>21</sub>H<sub>25</sub>NO<sub>5</sub>",
        "Molecular Mass": "371.43",
        "Melting Point": "186 °C"
    }
}