{
    "cas_no": "3061-65-2",
    "key_name": "2-(Acetyloxy)-2-propenenitrile",
    "cn_name": "1-氰乙烯基醋酸盐;",
    "alternate_name": "2-Propenenitrile, 2-(acetyloxy)-;Acrylonitrile, 2-hydroxy-, acetate (ester);Acrylonitrile, 2-hydroxy-, acetate;2-(Acetyloxy)-2-propenenitrile;Acetic acid, 1-cyanovinyl ester;α-Acetoxyacrylonitrile;2-Acetoxyacrylonitrile;α-Cyanovinyl acetate;1-Cyanovinyl acetate;2-Acetoxypropenenitrile;1-Cyanoethenyl acetate",
    "duplicated_cas_no": "99848-10-9",
    "SMILES": "C(OC(C)=O)(C#N)=C",
    "meta_data": {
        "InChI": "InChI=1S/C5H5NO2/c1-4(3-6)8-5(2)7/h1H2,2H3",
        "InChIKey": null,
        "Canonical SMILES": "N#CC(OC(=O)C)=C",
        "Molecular Formula": "C<sub>5</sub>H<sub>5</sub>NO<sub>2</sub>",
        "Molecular Mass": "111.10",
        "Boiling Point": "104-107 °C @ Press: 100 Torr",
        "Density": "1.063 g/cm³ @ Temp: 20 °C"
    }
}