{
    "cas_no": "115956-13-3",
    "key_name": "Dolasetron mesylate",
    "cn_name": "甲磺酸多拉司琼;",
    "alternate_name": "1<em>H</em>-Indole-3-carboxylic acid, octahydro-3-oxo-2,6-methano-2<em>H</em>-quinolizin-8-yl ester, stereoisomer, methanesulfonate (1:1);1<em>H</em>-Indole-3-carboxylic acid, octahydro-3-oxo-2,6-methano-2<em>H</em>-quinolizin-8-yl ester, (2α,6α,8α,9aβ)-, monomethanesulfonate;1<em>H</em>-Indole-3-carboxylic acid, octahydro-3-oxo-2,6-methano-2<em>H</em>-quinolizin-8-yl ester, stereoisomer, monomethanesulfonate;2,6-Methano-2<em>H</em>-quinolizine, 1<em>H</em>-indole-3-carboxylic acid deriv.;MDL 73147EF;Dolasetron mesylate;Anzemet;Anxemet",
    "duplicated_cas_no": "126126-99-6",
    "SMILES": "O(C(=O)C=1C=2C(NC1)=CC=CC2)[C@@H]3C[C@]4([N@]5[C@](CC(C4)C(=O)C5)(C3)[H])[H].S(C)(=O)(=O)O",
    "meta_data": {
        "InChI": "InChI=1/C19H20N2O3.CH4O3S/c22-18-10-21-12-5-11(18)6-13(21)8-14(7-12)24-19(23)16-9-20-17-4-2-1-3-15(16)17;1-5(2,3)4/h1-4,9,11-14,20H,5-8,10H2;1H3,(H,2,3,4)/t11?,12-,13+,14+;",
        "InChIKey": null,
        "Canonical SMILES": "O=C(OC1CC2N3CC(=O)C(C2)CC3C1)C4=CNC=5C=CC=CC54.O=S(=O)(O)C",
        "Molecular Formula": "C<sub>19</sub>H<sub>20</sub>N<sub>2</sub>O<sub>3</sub>.CH<sub>4</sub>O<sub>3</sub>S",
        "Molecular Mass": "",
        "Melting Point": "278 °C"
    }
}