{
    "cas_no": "629-99-2",
    "key_name": "Pentacosane",
    "cn_name": "二十五烷;",
    "alternate_name": "Pentacosane;<em>n</em>-Pentacosane;NSC 158663",
    "duplicated_cas_no": "",
    "SMILES": "C(CCCCCCCCCCCC)CCCCCCCCCCCC",
    "meta_data": {
        "InChI": "InChI=1S/C25H52/c1-3-5-7-9-11-13-15-17-19-21-23-25-24-22-20-18-16-14-12-10-8-6-4-2/h3-25H2,1-2H3",
        "InChIKey": null,
        "Canonical SMILES": "CCCCCCCCCCCCCCCCCCCCCCCCC",
        "Molecular Formula": "C<sub>25</sub>H<sub>52</sub>",
        "Molecular Mass": "352.68",
        "Boiling Point": "401.9 °C",
        "Melting Point": "54 °C"
    }
}