{
    "cas_no": "17332-11-5",
    "key_name": "2-Bromo-4-methoxyphenol",
    "cn_name": "2-溴-4-甲氧基苯酚;4-甲氧基-2-溴苯酚;",
    "alternate_name": "Phenol, 2-bromo-4-methoxy-;2-Bromo-4-methoxyphenol;NSC 168509;2-Bromo-4-methoxybenzenol",
    "duplicated_cas_no": "1301268-31-4",
    "SMILES": "O(C)C1=CC(Br)=C(O)C=C1",
    "meta_data": {
        "InChI": "InChI=1S/C7H7BrO2/c1-10-5-2-3-7(9)6(8)4-5/h2-4,9H,1H3",
        "InChIKey": null,
        "Canonical SMILES": "BrC1=CC(OC)=CC=C1O",
        "Molecular Formula": "C<sub>7</sub>H<sub>7</sub>BrO<sub>2</sub>",
        "Molecular Mass": "203.03",
        "Boiling Point": "146 °C @ Press: 30 Torr",
        "Melting Point": "77-78 °C"
    }
}