{
    "cas_no": "90-27-7",
    "key_name": "2-Phenylbutyric acid",
    "cn_name": "2-苯基丁酸;",
    "alternate_name": "Benzeneacetic acid, α-ethyl-;Butyric acid, 2-phenyl-;α-Ethylbenzeneacetic acid;α-Ethyl-α-toluic acid;α-Phenylbutyric acid;2-Phenylbutanoic acid;α-Ethylphenylacetic acid;2-Phenylbutyric acid;(±)-α-Phenylbutyric acid;(±)-2-Phenylbutyric acid;(±)-α-Ethylphenylacetic acid;(±)-2-Phenylbutanoic acid;(<em>RS</em>)-2-Phenylbutanoic acid;NSC 1860",
    "duplicated_cas_no": "7782-29-8;14375-30-5",
    "SMILES": "C(C(O)=O)(CC)C1=CC=CC=C1",
    "meta_data": {
        "InChI": "InChI=1S/C10H12O2/c1-2-9(10(11)12)8-6-4-3-5-7-8/h3-7,9H,2H2,1H3,(H,11,12)",
        "InChIKey": null,
        "Canonical SMILES": "O=C(O)C(C=1C=CC=CC1)CC",
        "Molecular Formula": "C<sub>10</sub>H<sub>12</sub>O<sub>2</sub>",
        "Molecular Mass": "164.20",
        "Boiling Point": "271 °C",
        "Melting Point": "47.5 °C",
        "Density": "1.066 g/cm³ @ Temp: 26 °C"
    }
}