{
    "cas_no": "20389-10-0",
    "key_name": "2-(3-Chlorophenyl)-4-quinolinecarboxylic acid",
    "cn_name": null,
    "alternate_name": "4-Quinolinecarboxylic acid, 2-(3-chlorophenyl)-;Cinchoninic acid, 2-(<em>m</em>-chlorophenyl)-;2-(3-Chlorophenyl)-4-quinolinecarboxylic acid;2-(3-Chlorophenyl)quinoline-4-carboxylic acid;NSC 123857",
    "duplicated_cas_no": "",
    "SMILES": "C(O)(=O)C=1C2=C(N=C(C1)C3=CC(Cl)=CC=C3)C=CC=C2",
    "meta_data": {
        "InChI": "InChI=1S/C16H10ClNO2/c17-11-5-3-4-10(8-11)15-9-13(16(19)20)12-6-1-2-7-14(12)18-15/h1-9H,(H,19,20)",
        "InChIKey": null,
        "Canonical SMILES": "O=C(O)C1=CC(=NC=2C=CC=CC21)C=3C=CC=C(Cl)C3",
        "Molecular Formula": "C<sub>16</sub>H<sub>10</sub>ClNO<sub>2</sub>",
        "Molecular Mass": "283.71",
        "Melting Point": "244-246 °C"
    }
}