{
    "cas_no": "18979-55-0",
    "key_name": "4-(Hexyloxy)phenol",
    "cn_name": "4-己氧基苯酚;对己氧基苯酚;对羟基苯己醚;对苯二酚单己醚;",
    "alternate_name": "Phenol, 4-(hexyloxy)-;Phenol, <em>p</em>-(hexyloxy)-;4-(Hexyloxy)phenol;<em>p</em>-(Hexyloxy)phenol;4-<em>n</em>-Hexoxyphenol;4-<em>n</em>-Hexyloxyphenol;<em>p</em>-Hexoxyphenol",
    "duplicated_cas_no": "",
    "SMILES": "O(CCCCCC)C1=CC=C(O)C=C1",
    "meta_data": {
        "InChI": "InChI=1S/C12H18O2/c1-2-3-4-5-10-14-12-8-6-11(13)7-9-12/h6-9,13H,2-5,10H2,1H3",
        "InChIKey": null,
        "Canonical SMILES": "OC1=CC=C(OCCCCCC)C=C1",
        "Molecular Formula": "C<sub>12</sub>H<sub>18</sub>O<sub>2</sub>",
        "Molecular Mass": "194.27",
        "Boiling Point": "112 °C @ Press: 3 Torr",
        "Melting Point": "45-47 °C"
    }
}