{
    "cas_no": "23873-81-6",
    "key_name": "Diphenylglyoxime",
    "cn_name": null,
    "alternate_name": "1,2-Ethanedione, 1,2-diphenyl-, 1,2-dioxime;Benzil, dioxime;Ethanedione, diphenyl-, dioxime;Glyoxime, diphenyl-;Benzil oxime;Diphenylglyoxime;Dibenzoyl dioxime;NSC 4042",
    "duplicated_cas_no": "",
    "SMILES": "C(C(=NO)C1=CC=CC=C1)(=NO)C2=CC=CC=C2",
    "meta_data": {
        "InChI": "InChI=1S/C14H12N2O2/c17-15-13(11-7-3-1-4-8-11)14(16-18)12-9-5-2-6-10-12/h1-10,17-18H",
        "InChIKey": null,
        "Canonical SMILES": "ON=C(C=1C=CC=CC1)C(=NO)C=2C=CC=CC2",
        "Molecular Formula": "C<sub>14</sub>H<sub>12</sub>N<sub>2</sub>O<sub>2</sub>",
        "Molecular Mass": "240.26",
        "Melting Point": "240 °C"
    }
}