{
    "cas_no": "25597-16-4",
    "key_name": "Ethyl (2<em>E</em>)-4,4,4-trifluoro-2-butenoate",
    "cn_name": "4,4,4-三氟巴豆酸乙酯;4,4,4-三氟-2-丁烯酸乙酯;",
    "alternate_name": "2-Butenoic acid, 4,4,4-trifluoro-, ethyl ester, (2<em>E</em>)-;2-Butenoic acid, 4,4,4-trifluoro-, ethyl ester, (<em>E</em>)-;Ethyl (2<em>E</em>)-4,4,4-trifluoro-2-butenoate;(<em>E</em>)-Ethyl 4,4,4-trifluorobut-2-enoate;Ethyl (<em>E</em>)-4,4,4-trifluorocrotonate;Ethyl trans-4,4,4-trifluorocrotonate;Ethyl <em>trans</em>-4,4,4-trifluoro-2-butenoate",
    "duplicated_cas_no": "",
    "SMILES": "C(/C=C/C(F)(F)F)(OCC)=O",
    "meta_data": {
        "InChI": "InChI=1S/C6H7F3O2/c1-2-11-5(10)3-4-6(7,8)9/h3-4H,2H2,1H3/b4-3+",
        "InChIKey": null,
        "Canonical SMILES": "O=C(OCC)C=CC(F)(F)F",
        "Molecular Formula": "C<sub>6</sub>H<sub>7</sub>F<sub>3</sub>O<sub>2</sub>",
        "Molecular Mass": "168.11",
        "Boiling Point": "113-117 °C"
    }
}