{
    "cas_no": "286-99-7",
    "key_name": "13-Oxabicyclo[10.1.0]tridecane",
    "cn_name": "环氧十二烷;13-氧杂二环[10.1.0]十三烷;",
    "alternate_name": "13-Oxabicyclo[10.1.0]tridecane;Cyclododecane, 1,2-epoxy-;Cyclododecene epoxide;Epoxycyclododecane;1,2-Epoxycyclododecane;Cyclododecene oxide;NSC 521077",
    "duplicated_cas_no": "",
    "SMILES": "C12C(O1)CCCCCCCCCC2",
    "meta_data": {
        "InChI": "InChI=1S/C12H22O/c1-2-4-6-8-10-12-11(13-12)9-7-5-3-1/h11-12H,1-10H2",
        "InChIKey": null,
        "Canonical SMILES": "O1C2CCCCCCCCCCC12",
        "Molecular Formula": "C<sub>12</sub>H<sub>22</sub>O",
        "Molecular Mass": "182.30",
        "Boiling Point": "113-114 °C @ Press: 5 Torr"
    }
}