{
    "cas_no": "300-87-8",
    "key_name": "3,5-Dimethylisoxazole",
    "cn_name": "3,5-二甲基异噁唑;",
    "alternate_name": "Isoxazole, 3,5-dimethyl-;3,5-Dimethylisoxazole;U 21221;NSC 40798;3,5-Dimethyl-1,2-oxazole",
    "duplicated_cas_no": "",
    "SMILES": "CC=1C=C(C)ON1",
    "meta_data": {
        "InChI": "InChI=1S/C5H7NO/c1-4-3-5(2)7-6-4/h3H,1-2H3",
        "InChIKey": null,
        "Canonical SMILES": "N=1OC(=CC1C)C",
        "Molecular Formula": "C<sub>5</sub>H<sub>7</sub>NO",
        "Molecular Mass": "97.12",
        "Boiling Point": "143 °C",
        "Melting Point": "143-145 °C"
    }
}