{
    "cas_no": "100-41-4",
    "key_name": "Ethylbenzene",
    "cn_name": "乙基苯;乙苯;",
    "alternate_name": "Benzene, ethyl-;Ethylbenzene;EB;Ethylbenzol;Phenylethane;α-Methyltoluene;NSC 406903;1-Ethylbenzene",
    "duplicated_cas_no": "",
    "SMILES": "C(C)C1=CC=CC=C1",
    "meta_data": {
        "InChI": "InChI=1S/C8H10/c1-2-8-6-4-3-5-7-8/h3-7H,2H2,1H3",
        "InChIKey": null,
        "Canonical SMILES": "C=1C=CC(=CC1)CC",
        "Molecular Formula": "C<sub>8</sub>H<sub>10</sub>",
        "Molecular Mass": "106.17",
        "Boiling Point": "136.1 °C",
        "Melting Point": "-94.9 °C",
        "Density": "0.8670 g/cm³ @ Temp: 20 °C"
    }
}