{
    "cas_no": "12031-63-9",
    "key_name": "Lithium niobium oxide (LiNbO<sub>3</sub>)",
    "cn_name": "铌酸锂;铌酸锂晶体;铌酸锂LN;",
    "alternate_name": "Lithium niobium oxide (LiNbO<sub>3</sub>);Niobate (NbO<sub>3</sub><sup>1-</sup>), lithium;Lithium niobate(V) (LiNbO<sub>3</sub>);Lithium niobium trioxide;Lithium niobate;Lithium niobate (LiNbO<sub>3</sub>);Lithium metaniobate;LN;Lithium niobium oxide (Li<sub>0.67</sub>Nb<sub>0.67</sub>O<sub>2</sub>)",
    "duplicated_cas_no": "108026-39-7;874998-53-5;1416059-34-1;1620054-05-8;1802392-91-1;2168558-70-9;2181039-20-1;2460522-98-7;2617466-05-2",
    "SMILES": "",
    "meta_data": {
        "InChI": "",
        "InChIKey": null,
        "Canonical SMILES": "",
        "Molecular Formula": "LiNbO<sub>3</sub>",
        "Molecular Mass": "",
        "Melting Point": "1267 °C",
        "Density": "&gt;4.22 g/cm³"
    }
}