{
    "uri": "substance/pt/12031639",
    "rn": "12031-63-9",
    "name": "Lithium niobium oxide (LiNbO<sub>3</sub>)",
    "images": [],
    "inchi": "",
    "inchiKey": "",
    "smile": "",
    "canonicalSmile": "",
    "molecularFormula": "LiNbO<sub>3</sub>",
    "molecularMass": "",
    "experimentalProperties": [
        {
            "name": "Melting Point",
            "property": "1267 °C",
            "sourceNumber": 1
        },
        {
            "name": "Density",
            "property": "&gt;4.22 g/cm³",
            "sourceNumber": 2
        }
    ],
    "propertyCitations": [
        {
            "docUri": "document/pt/document/21616834",
            "sourceNumber": 1,
            "source": "Nassau, Kurt; Proc. Int. Meet. Ferroelectr., (1966), 1, 270-6, CAplus"
        },
        {
            "docUri": "document/pt/document/4463916",
            "sourceNumber": 2,
            "source": "Hirano, Shinichi; Journal of the American Ceramic Society, (1989), 72(4), 707-9, CAplus"
        }
    ],
    "synonyms": [
        "Lithium niobium oxide (LiNbO<sub>3</sub>)",
        "Niobate (NbO<sub>3</sub><sup>1-</sup>), lithium",
        "Lithium niobate(V) (LiNbO<sub>3</sub>)",
        "Lithium niobium trioxide",
        "Lithium niobate",
        "Lithium niobate (LiNbO<sub>3</sub>)",
        "Lithium metaniobate",
        "LN",
        "Lithium niobium oxide (Li<sub>0.67</sub>Nb<sub>0.67</sub>O<sub>2</sub>)"
    ],
    "replacedRns": [
        "108026-39-7",
        "874998-53-5",
        "1416059-34-1",
        "1620054-05-8",
        "1802392-91-1",
        "2168558-70-9",
        "2181039-20-1",
        "2460522-98-7",
        "2617466-05-2"
    ],
    "hasMolfile": false,
    "source": "https://commonchemistry.cas.org/detail?cas_rn=12031-63-9"
}