{
    "cas_no": "89-00-9",
    "key_name": "Quinolinic acid",
    "cn_name": "喹啉酸;2,3-吡啶二羧酸;吡啶-2,3-二羧酸;",
    "alternate_name": "2,3-Pyridinedicarboxylic acid;Quinolinic acid;NSC 13127;NSC 18836;NSC 403247;MeSH ID: D017378",
    "duplicated_cas_no": "",
    "SMILES": "C(O)(=O)C1=C(C(O)=O)N=CC=C1",
    "meta_data": {
        "InChI": "InChI=1S/C7H5NO4/c9-6(10)4-2-1-3-8-5(4)7(11)12/h1-3H,(H,9,10)(H,11,12)",
        "InChIKey": null,
        "Canonical SMILES": "O=C(O)C1=NC=CC=C1C(=O)O",
        "Molecular Formula": "C<sub>7</sub>H<sub>5</sub>NO<sub>4</sub>",
        "Molecular Mass": "167.12",
        "Melting Point": "185-190 °C (decomp)"
    }
}