{
    "cas_no": "23696-28-8",
    "key_name": "Olaquindox",
    "cn_name": "奥拉多司;喹乙醇;N-羟乙基-3-甲基-2-喹喔啉甲酰胺-1,4-二氧化物;",
    "alternate_name": "2-Quinoxalinecarboxamide, <em>N</em>-(2-hydroxyethyl)-3-methyl-, 1,4-dioxide;Olaquindox;BayoNox;Bayernox;Bisergon;2-[<em>N</em>-(2-Hydroxyethyl)carboxamide]-3-methylquinoxaline 1,4-dioxide;NSC 634933;2-((2-Hydroxyethyl)carbamoyl)-3-methylquinoxaline1,4-dioxide",
    "duplicated_cas_no": "",
    "SMILES": "O=N=1C2=C(N(=O)=C(C)C1C(NCCO)=O)C=CC=C2",
    "meta_data": {
        "InChI": "InChI=1S/C12H13N3O4/c1-8-11(12(17)13-6-7-16)15(19)10-5-3-2-4-9(10)14(8)18/h2-5,16H,6-7H2,1H3,(H,13,17)",
        "InChIKey": null,
        "Canonical SMILES": "O=C(NCCO)C1=C(N(=O)=C2C=CC=CC2=N1=O)C",
        "Molecular Formula": "C<sub>12</sub>H<sub>13</sub>N<sub>3</sub>O<sub>4</sub>",
        "Molecular Mass": "263.25",
        "Melting Point": "209 °C"
    }
}