{
    "cas_no": "1941-52-2",
    "key_name": "<span class=\"text-smallcaps\">D</span>-Glucose, diethyl dithioacetal",
    "cn_name": "D-葡萄糖-二乙基缩硫醛;",
    "alternate_name": "<span class=\"text-smallcaps\">D</span>-Glucose, diethyl dithioacetal;<span class=\"text-smallcaps\">D</span>-Glucose, diethyl mercaptal;Glucose diethyl mercaptal;NSC 19773;NSC 8521",
    "duplicated_cas_no": "",
    "SMILES": "C([C@@H]([C@H]([C@@H]([C@@H](CO)O)O)O)O)(SCC)SCC",
    "meta_data": {
        "InChI": "InChI=1S/C10H22O5S2/c1-3-16-10(17-4-2)9(15)8(14)7(13)6(12)5-11/h6-15H,3-5H2,1-2H3/t6-,7-,8+,9-/m1/s1",
        "InChIKey": null,
        "Canonical SMILES": "OCC(O)C(O)C(O)C(O)C(SCC)SCC",
        "Molecular Formula": "C<sub>10</sub>H<sub>22</sub>O<sub>5</sub>S<sub>2</sub>",
        "Molecular Mass": "286.41",
        "Melting Point": "125 °C"
    }
}