{
    "cas_no": "88-18-6",
    "key_name": "2-<em>tert</em>-Butylphenol",
    "cn_name": "2-叔丁基苯酚;邻叔丁基苯酚;",
    "alternate_name": "Phenol, 2-(1,1-dimethylethyl)-;Phenol, <em>o</em>-<em>tert</em>-butyl-;2-(1,1-Dimethylethyl)phenol;<em>o</em>-<em>tert</em>-Butylphenol;2-<em>tert</em>-Butylphenol;2-<em>tert</em>-Butyl-1-hydroxybenzene;<em>o</em>-<em>t</em>-Butylphenol",
    "duplicated_cas_no": "",
    "SMILES": "C(C)(C)(C)C1=C(O)C=CC=C1",
    "meta_data": {
        "InChI": "InChI=1S/C10H14O/c1-10(2,3)8-6-4-5-7-9(8)11/h4-7,11H,1-3H3",
        "InChIKey": null,
        "Canonical SMILES": "OC=1C=CC=CC1C(C)(C)C",
        "Molecular Formula": "C<sub>10</sub>H<sub>14</sub>O",
        "Molecular Mass": "150.22",
        "Boiling Point": "223 °C @ Press: 760 Torr",
        "Melting Point": "-6.8 °C",
        "Density": "0.9783 g/cm³ @ Temp: 20 °C"
    }
}