{
    "cas_no": "14348-41-5",
    "key_name": "3-Bromo-4-hydroxybenzoic acid",
    "cn_name": null,
    "alternate_name": "Benzoic acid, 3-bromo-4-hydroxy-;3-Bromo-4-hydroxybenzoic acid;<em>m</em>-Bromo-<em>p</em>-hydroxybenzoic acid",
    "duplicated_cas_no": "",
    "SMILES": "C(O)(=O)C1=CC(Br)=C(O)C=C1",
    "meta_data": {
        "InChI": "InChI=1S/C7H5BrO3/c8-5-3-4(7(10)11)1-2-6(5)9/h1-3,9H,(H,10,11)",
        "InChIKey": null,
        "Canonical SMILES": "O=C(O)C1=CC=C(O)C(Br)=C1",
        "Molecular Formula": "C<sub>7</sub>H<sub>5</sub>BrO<sub>3</sub>",
        "Molecular Mass": "217.02",
        "Melting Point": "177 °C"
    }
}