{
    "cas_no": "4430-45-9",
    "key_name": "1-Isothiocyanatooctane",
    "cn_name": "1-硫代异氰酸辛酯;1-异硫代氰酸辛酯;",
    "alternate_name": "Octane, 1-isothiocyanato-;Isothiocyanic acid, octyl ester;1-Isothiocyanatooctane;Octyl isothiocyanate;<em>n</em>-Octyl isothiocyanate;1-Octyl isothiocyanate",
    "duplicated_cas_no": "",
    "SMILES": "C(CCCCC)CCN=C=S",
    "meta_data": {
        "InChI": "InChI=1S/C9H17NS/c1-2-3-4-5-6-7-8-10-9-11/h2-8H2,1H3",
        "InChIKey": null,
        "Canonical SMILES": "S=C=NCCCCCCCC",
        "Molecular Formula": "C<sub>9</sub>H<sub>17</sub>NS",
        "Molecular Mass": "171.30",
        "Boiling Point": "123 °C @ Press: 12 Torr"
    }
}