{
    "cas_no": "6138-90-5",
    "key_name": "Geranyl bromide",
    "cn_name": "溴化香叶酯;香叶基溴；溴化香叶酯;",
    "alternate_name": "2,6-Octadiene, 1-bromo-3,7-dimethyl-, (2<em>E</em>)-;2,6-Octadiene, 1-bromo-3,7-dimethyl-, (<em>E</em>)-;(2<em>E</em>)-1-Bromo-3,7-dimethyl-2,6-octadiene;Geranyl bromide;<em>trans</em>-Geranyl bromide;(2<em>E</em>)-Geranyl bromide;(<em>E</em>)-1-Bromo-3,7-dimethyl-2,6-octadiene;(2<em>E</em>)-1-Bromo-3,7-dimethylocta-2,6-diene;(E)-1-Bromo-3,7-dimethylocta-2,6-diene",
    "duplicated_cas_no": "",
    "SMILES": "C(\\CCC=C(C)C)(=C/CBr)/C",
    "meta_data": {
        "InChI": "InChI=1S/C10H17Br/c1-9(2)5-4-6-10(3)7-8-11/h5,7H,4,6,8H2,1-3H3/b10-7+",
        "InChIKey": null,
        "Canonical SMILES": "BrCC=C(C)CCC=C(C)C",
        "Molecular Formula": "C<sub>10</sub>H<sub>17</sub>Br",
        "Molecular Mass": "217.15",
        "Boiling Point": "45-46 °C @ Press: 0.05 Torr"
    }
}