{
    "cas_no": "54123-21-6",
    "key_name": "β-Oxo-2-pyridinepropanenitrile",
    "cn_name": "3-氧代-3-(2-吡啶基)丙腈;",
    "alternate_name": "2-Pyridinepropanenitrile, β-oxo-;2-Pyridinepropionitrile, β-oxo-;β-Oxo-2-pyridinepropanenitrile;3-Oxo-3-(2-pyridinyl)propanenitrile;3-Oxo-3-(pyridin-2-yl)propionitrile;3-Oxo-3-(2-pyridyl)propanenitrile;2-(Pyridin-2-carbonyl)acetonitrile",
    "duplicated_cas_no": "",
    "SMILES": "C(CC#N)(=O)C1=CC=CC=N1",
    "meta_data": {
        "InChI": "InChI=1S/C8H6N2O/c9-5-4-8(11)7-3-1-2-6-10-7/h1-3,6H,4H2",
        "InChIKey": null,
        "Canonical SMILES": "N#CCC(=O)C1=NC=CC=C1",
        "Molecular Formula": "C<sub>8</sub>H<sub>6</sub>N<sub>2</sub>O",
        "Molecular Mass": "146.15",
        "Melting Point": "93-94 °C"
    }
}