{
    "cas_no": "532-24-1",
    "key_name": "Tropinone",
    "cn_name": "托品酮;8-甲基-8-氮杂双环[3,3,1]辛烷-3-酮;",
    "alternate_name": "8-Azabicyclo[3.2.1]octan-3-one, 8-methyl-;1α<em>H</em>,5α<em>H</em>-Tropan-3-one;Tropinone;Tropanone;8-Methyl-8-azabicyclo[3.2.1]octan-3-one;3-Tropanone;3-Tropinone;Tropanon;Tropinon;<em>N</em>-Methyl-8-azabicyclo[3.2.1]octan-3-one;NSC 118012",
    "duplicated_cas_no": "25866-00-6;35193-79-4;1207071-38-2",
    "SMILES": "CN1C2CC(=O)CC1CC2",
    "meta_data": {
        "InChI": "InChI=1S/C8H13NO/c1-9-6-2-3-7(9)5-8(10)4-6/h6-7H,2-5H2,1H3",
        "InChIKey": null,
        "Canonical SMILES": "O=C1CC2N(C)C(C1)CC2",
        "Molecular Formula": "C<sub>8</sub>H<sub>13</sub>NO",
        "Molecular Mass": "139.19",
        "Boiling Point": "227 °C",
        "Melting Point": "43 °C"
    }
}