{
    "cas_no": "60456-26-0",
    "key_name": "(<em>R</em>)-Glycidyl butyrate",
    "cn_name": null,
    "alternate_name": "Butanoic acid, (2<em>R</em>)-2-oxiranylmethyl ester;Butanoic acid, oxiranylmethyl ester, (<em>R</em>)-;Butanoic acid, (2<em>R</em>)-oxiranylmethyl ester;(-)-Glycidyl butyrate;(<em>R</em>)-Glycidyl butyrate;(2<em>R</em>)-(-)-Glycidyl butyrate;(<em>R</em>)-(-)-Glycidyl butyrate;Butyric acid (R)-Glycidyl ester;Butanoic acid (R)-oxiranylmethyl ester;(<em>R</em>)-Oxiran-2-ylmethyl butyrate;[(2R)-Oxiran-2-yl]methyl butanoate",
    "duplicated_cas_no": "",
    "SMILES": "C(OC(CCC)=O)[C@H]1CO1",
    "meta_data": {
        "InChI": "InChI=1S/C7H12O3/c1-2-3-7(8)10-5-6-4-9-6/h6H,2-5H2,1H3/t6-/m1/s1",
        "InChIKey": null,
        "Canonical SMILES": "O=C(OCC1OC1)CCC",
        "Molecular Formula": "C<sub>7</sub>H<sub>12</sub>O<sub>3</sub>",
        "Molecular Mass": "144.17",
        "Boiling Point": "192.6 °C"
    }
}