{
    "cas_no": "26116-12-1",
    "key_name": "2-(Aminomethyl)-1-ethylpyrrolidine",
    "cn_name": "N-乙基-2-氨甲基吡咯烷;",
    "alternate_name": "2-Pyrrolidinemethanamine, 1-ethyl-;Pyrrolidine, 2-(aminomethyl)-1-ethyl-;1-Ethyl-2-pyrrolidinemethanamine;2-(Aminomethyl)-1-ethylpyrrolidine;1-Ethyl-2-(aminomethyl)pyrrolidine;<em>N</em>-Ethyl-α-aminomethylpyrrolidine;<em>N</em>-Ethyl-2-(aminomethyl)pyrrolidine;2-(Aminomethyl)-<em>N</em>-ethylpyrrolidine;1-Ethyl-2-pyrrolidinemethylamine;(1-Ethyl-2-pyrrolidinyl)methylamine;(±)-2-(Aminomethyl)-1-ethylpyrrolidine;1-(1-Ethylpyrrolidin-2-yl)methanamine;(1-Ethylpyrrolidin-2-yl)methanamine;<em>N</em>-[(1-Ethylpyrrolidin-2-yl)methyl]amine;<em>N</em>-Ethyl-2-aminomethyltetrahydropyrrolidine",
    "duplicated_cas_no": "36845-22-4",
    "SMILES": "C(N)C1N(CC)CCC1",
    "meta_data": {
        "InChI": "InChI=1S/C7H16N2/c1-2-9-5-3-4-7(9)6-8/h7H,2-6,8H2,1H3",
        "InChIKey": null,
        "Canonical SMILES": "NCC1N(CC)CCC1",
        "Molecular Formula": "C<sub>7</sub>H<sub>16</sub>N<sub>2</sub>",
        "Molecular Mass": "128.22",
        "Boiling Point": "77-78 °C @ Press: 10 Torr",
        "Density": "0.897 g/cm³ @ Temp: 20 °C"
    }
}