{
    "cas_no": "17460-56-9",
    "key_name": "<em>N</em>-[(Phenylmethoxy)carbonyl]-<span class=\"text-smallcaps\">D</smallcap>-phenylalanyl-<smallcap>L</span>-proline",
    "cn_name": null,
    "alternate_name": "<span class=\"text-smallcaps\">L</smallcap>-Proline, <em>N</em>-[(phenylmethoxy)carbonyl]-<smallcap>D</span>-phenylalanyl-;Proline, 1-(<em>N</em>-carboxy-3-phenyl-<span class=\"text-smallcaps\">D</smallcap>-alanyl)-, <em>N</em>-benzyl ester, <smallcap>L</span>-;<span class=\"text-smallcaps\">L</smallcap>-Proline, 1-[<em>N</em>-[(phenylmethoxy)carbonyl]-<smallcap>D</span>-phenylalanyl]-;<em>N</em>-[(Phenylmethoxy)carbonyl]-<span class=\"text-smallcaps\">D</smallcap>-phenylalanyl-<smallcap>L</span>-proline;Cbz-<span class=\"text-smallcaps\">D</span>-Phe-Pro-OH",
    "duplicated_cas_no": "",
    "SMILES": "C([C@@H](CC1=CC=CC=C1)NC(OCC2=CC=CC=C2)=O)(=O)N3[C@H](C(O)=O)CCC3",
    "meta_data": {
        "InChI": "InChI=1S/C22H24N2O5/c25-20(24-13-7-12-19(24)21(26)27)18(14-16-8-3-1-4-9-16)23-22(28)29-15-17-10-5-2-6-11-17/h1-6,8-11,18-19H,7,12-15H2,(H,23,28)(H,26,27)/t18-,19+/m1/s1",
        "InChIKey": null,
        "Canonical SMILES": "O=C(OCC=1C=CC=CC1)NC(C(=O)N2CCCC2C(=O)O)CC=3C=CC=CC3",
        "Molecular Formula": "C<sub>22</sub>H<sub>24</sub>N<sub>2</sub>O<sub>5</sub>",
        "Molecular Mass": "396.44",
        "Melting Point": "132-133 °C"
    }
}