{
    "cas_no": "2599-01-1",
    "key_name": "Cetyl myristate",
    "cn_name": "十六碳烷基十四烷酸酯;十四烷酸十六烷基酯;鲸蜡醇肉豆蔻酸酯;肉豆蔻酸棕榈醇酯;",
    "alternate_name": "Tetradecanoic acid, hexadecyl ester;Myristic acid, hexadecyl ester;1-Hexadecanol, myristate;Hexadecyl tetradecanoate;Cetyl myristate;Hexadecyl myristate;Palmityl myristate;<em>n</em>-Hexadecyl <em>n</em>-tetradecanoate;Myristic acid cetyl ester",
    "duplicated_cas_no": "",
    "SMILES": "C(OCCCCCCCCCCCCCCCC)(CCCCCCCCCCCCC)=O",
    "meta_data": {
        "InChI": "InChI=1S/C30H60O2/c1-3-5-7-9-11-13-15-16-17-19-21-23-25-27-29-32-30(31)28-26-24-22-20-18-14-12-10-8-6-4-2/h3-29H2,1-2H3",
        "InChIKey": null,
        "Canonical SMILES": "O=C(OCCCCCCCCCCCCCCCC)CCCCCCCCCCCCC",
        "Molecular Formula": "C<sub>30</sub>H<sub>60</sub>O<sub>2</sub>",
        "Molecular Mass": "452.80",
        "Melting Point": "47-48 °C"
    }
}