{
    "cas_no": "105628-07-7",
    "key_name": "Fasudil hydrochloride",
    "cn_name": "盐酸法舒地尔;六氢-1-(5-异喹啉磺酰基)-1H-1,4-二氮杂卓盐酸盐;",
    "alternate_name": "Isoquinoline, 5-[(hexahydro-1<em>H</em>-1,4-diazepin-1-yl)sulfonyl]-, hydrochloride (1:1);1<em>H</em>-1,4-Diazepine, hexahydro-1-(5-isoquinolinylsulfonyl)-, monohydrochloride;1-(5-Isoquinolinesulfonyl)homopiperazine hydrochloride;Eril;Fasudil hydrochloride",
    "duplicated_cas_no": "",
    "SMILES": "S(=O)(=O)(C=1C2=C(C=CC1)C=NC=C2)N3CCCNCC3.Cl",
    "meta_data": {
        "InChI": "InChI=1S/C14H17N3O2S.ClH/c18-20(19,17-9-2-6-15-8-10-17)14-4-1-3-12-11-16-7-5-13(12)14;/h1,3-5,7,11,15H,2,6,8-10H2;1H",
        "InChIKey": null,
        "Canonical SMILES": "Cl.O=S(=O)(C1=CC=CC=2C=NC=CC21)N3CCNCCC3",
        "Molecular Formula": "C<sub>14</sub>H<sub>17</sub>N<sub>3</sub>O<sub>2</sub>S.ClH",
        "Molecular Mass": "",
        "Melting Point": "~220 °C (approx)"
    }
}