{
    "cas_no": "14690-00-7",
    "key_name": "2-(Phenylmethoxy)-1,3-propanediol",
    "cn_name": "2-苄氧-1,3-丙二醇;",
    "alternate_name": "1,3-Propanediol, 2-(phenylmethoxy)-;1,3-Propanediol, 2-(benzyloxy)-;2-(Phenylmethoxy)-1,3-propanediol;2-<em>O</em>-Benzylglycerol;2-(Benzyloxy)-1,3-propanediol",
    "duplicated_cas_no": "136281-87-3",
    "SMILES": "C(OC(CO)CO)C1=CC=CC=C1",
    "meta_data": {
        "InChI": "InChI=1S/C10H14O3/c11-6-10(7-12)13-8-9-4-2-1-3-5-9/h1-5,10-12H,6-8H2",
        "InChIKey": null,
        "Canonical SMILES": "OCC(OCC=1C=CC=CC1)CO",
        "Molecular Formula": "C<sub>10</sub>H<sub>14</sub>O<sub>3</sub>",
        "Molecular Mass": "182.22",
        "Boiling Point": "185-187 °C @ Press: 10.0 Torr",
        "Melting Point": "38.5-40.0 °C"
    }
}