{
    "cas_no": "55699-10-0",
    "key_name": "4-(1,1-Dimethylethyl)-3-hydroxy-2,6-dimethylbenzeneacetonitrile",
    "cn_name": null,
    "alternate_name": "Benzeneacetonitrile, 4-(1,1-dimethylethyl)-3-hydroxy-2,6-dimethyl-;Acetonitrile, (4-<em>tert</em>-butyl-3-hydroxy-2,6-xylyl)-;4-(1,1-Dimethylethyl)-3-hydroxy-2,6-dimethylbenzeneacetonitrile;4-<em>tert</em>-Butyl-3-hydroxy-2,6-dimethylphenylacetonitrile;4-<em>tert</em>-Butyl-2,6-dimethyl-3-hydroxyphenylacetonitrile;2-(4-<em>tert</em>-Butyl-3-hydroxy-2,6-dimethylphenyl)acetonitrile",
    "duplicated_cas_no": "",
    "SMILES": "C(C)(C)(C)C1=C(O)C(C)=C(CC#N)C(C)=C1",
    "meta_data": {
        "InChI": "InChI=1S/C14H19NO/c1-9-8-12(14(3,4)5)13(16)10(2)11(9)6-7-15/h8,16H,6H2,1-5H3",
        "InChIKey": null,
        "Canonical SMILES": "N#CCC1=C(C=C(C(O)=C1C)C(C)(C)C)C",
        "Molecular Formula": "C<sub>14</sub>H<sub>19</sub>NO",
        "Molecular Mass": "217.31",
        "Melting Point": "125 °C"
    }
}