{
    "cas_no": "321-64-2",
    "key_name": "Tacrine",
    "cn_name": "他克林;呆克宁;9-胺-1,2,3,4-四氢盐酸氯酯;5-氨基四氢吖啶;单满吖啶氨;他克林;9-氨基-1,2,3,4-四氢吖啶;",
    "alternate_name": "9-Acridinamine, 1,2,3,4-tetrahydro-;Acridine, 9-amino-1,2,3,4-tetrahydro-;Acridine, 9-aminotetrahydro-;1,2,3,4-Tetrahydro-9-acridinamine;9-Amino-1,2,3,4-tetrahydroacridine;Tacrine;Tetrahydroaminacrine;Tetrahydroaminocrine;Tetrahydroaminoacridine;Tetrahydroaminocrin;1,2,3,4-Tetrahydro-9-aminoacridine;THA;1,2,3,4-Tetrahydro-acridin-9-ylamine;MeSH ID: D013619",
    "duplicated_cas_no": "",
    "SMILES": "NC1=C2C(=NC=3C1=CC=CC3)CCCC2",
    "meta_data": {
        "InChI": "InChI=1S/C13H14N2/c14-13-9-5-1-3-7-11(9)15-12-8-4-2-6-10(12)13/h1,3,5,7H,2,4,6,8H2,(H2,14,15)",
        "InChIKey": null,
        "Canonical SMILES": "N=1C=2C=CC=CC2C(N)=C3C1CCCC3",
        "Molecular Formula": "C<sub>13</sub>H<sub>14</sub>N<sub>2</sub>",
        "Molecular Mass": "198.26",
        "Melting Point": "183.5 °C"
    }
}