{
    "cas_no": "93-91-4",
    "key_name": "Benzoylacetone",
    "cn_name": "1-苯基-1,3-丁二酮;1-苯甲酰丙酮;",
    "alternate_name": "1,3-Butanedione, 1-phenyl-;1-Phenyl-1,3-butanedione;Acetoacetophenone;Benzoylacetone;Acetylbenzoylmethane;2-Propanone, benzoyl-;1-Benzoylacetone;2-Acetylacetophenone;1-Methyl-3-phenyl-1,3-propanedione;1-Benzoyl-2-propanone;α-Acetylacetophenone;4-Phenyl-2,4-butanedione;NSC 100655;NSC 4015;NSC 404283;NSC 405722;NSC 405723;NSC 405724;NSC 83580;NSC 83581;NSC 87898;NSC 88942;NSC 97232;NSC 97233;1-Phenylbutan-1,3-dione;4-Oxo-4-phenylbutan-2-one;1-Phenylbutane-1,3-dione",
    "duplicated_cas_no": "",
    "SMILES": "C(CC(C)=O)(=O)C1=CC=CC=C1",
    "meta_data": {
        "InChI": "InChI=1S/C10H10O2/c1-8(11)7-10(12)9-5-3-2-4-6-9/h2-6H,7H2,1H3",
        "InChIKey": null,
        "Canonical SMILES": "O=C(C=1C=CC=CC1)CC(=O)C",
        "Molecular Formula": "C<sub>10</sub>H<sub>10</sub>O<sub>2</sub>",
        "Molecular Mass": "162.19",
        "Boiling Point": "261.5 °C",
        "Melting Point": "56 °C",
        "Density": "1.0560 g/cm³ @ Temp: 77.8 °C"
    }
}