{
    "cas_no": "638-67-5",
    "key_name": "Tricosane",
    "cn_name": "正二十三烷;二十三烷;",
    "alternate_name": "Tricosane;<em>n</em>-Tricosane;NSC 78487",
    "duplicated_cas_no": "",
    "SMILES": "C(CCCCCCCCCCC)CCCCCCCCCCC",
    "meta_data": {
        "InChI": "InChI=1S/C23H48/c1-3-5-7-9-11-13-15-17-19-21-23-22-20-18-16-14-12-10-8-6-4-2/h3-23H2,1-2H3",
        "InChIKey": null,
        "Canonical SMILES": "CCCCCCCCCCCCCCCCCCCCCCC",
        "Molecular Formula": "C<sub>23</sub>H<sub>48</sub>",
        "Molecular Mass": "324.63",
        "Boiling Point": "380 °C",
        "Melting Point": "47.6 °C"
    }
}