{
    "cas_no": "20965-27-9",
    "key_name": "7-Bromoheptanenitrile",
    "cn_name": "7-溴庚腈;",
    "alternate_name": "Heptanenitrile, 7-bromo-;7-Bromoheptanenitrile;6-Cyanohexyl bromide;7-Bromoheptanonitrile;NSC 60131",
    "duplicated_cas_no": "",
    "SMILES": "C(CCCBr)CCC#N",
    "meta_data": {
        "InChI": "InChI=1S/C7H12BrN/c8-6-4-2-1-3-5-7-9/h1-6H2",
        "InChIKey": null,
        "Canonical SMILES": "N#CCCCCCCBr",
        "Molecular Formula": "C<sub>7</sub>H<sub>12</sub>BrN",
        "Molecular Mass": "190.08",
        "Boiling Point": "140-141 °C @ Press: 14 Torr"
    }
}