{
    "cas_no": "3430-23-7",
    "key_name": "3,5-Dibromo-4-methylpyridine",
    "cn_name": "3,5-二溴-4-甲基吡啶;",
    "alternate_name": "Pyridine, 3,5-dibromo-4-methyl-;4-Picoline, 3,5-dibromo-;3,5-Dibromo-4-methylpyridine",
    "duplicated_cas_no": "",
    "SMILES": "CC=1C(Br)=CN=CC1Br",
    "meta_data": {
        "InChI": "InChI=1S/C6H5Br2N/c1-4-5(7)2-9-3-6(4)8/h2-3H,1H3",
        "InChIKey": null,
        "Canonical SMILES": "BrC1=CN=CC(Br)=C1C",
        "Molecular Formula": "C<sub>6</sub>H<sub>5</sub>Br<sub>2</sub>N",
        "Molecular Mass": "250.92",
        "Melting Point": "104-107 °C"
    }
}