{
    "cas_no": "708-15-6",
    "key_name": "8-Methoxy-2-quinazolinamine",
    "cn_name": null,
    "alternate_name": "2-Quinazolinamine, 8-methoxy-;Quinazoline, 2-amino-8-methoxy-;8-Methoxy-2-quinazolinamine;2-Amino-8-methoxyquinazoline",
    "duplicated_cas_no": "",
    "SMILES": "O(C)C=1C2=C(C=NC(N)=N2)C=CC1",
    "meta_data": {
        "InChI": "InChI=1S/C9H9N3O/c1-13-7-4-2-3-6-5-11-9(10)12-8(6)7/h2-5H,1H3,(H2,10,11,12)",
        "InChIKey": null,
        "Canonical SMILES": "N1=CC2=CC=CC(OC)=C2N=C1N",
        "Molecular Formula": "C<sub>9</sub>H<sub>9</sub>N<sub>3</sub>O",
        "Molecular Mass": "175.19",
        "Melting Point": "150-152 °C"
    }
}