{
    "cas_no": "1788-10-9",
    "key_name": "4-Acetylbenzenesulfonyl chloride",
    "cn_name": "4-乙酰基苯磺酰氯;对乙酰基苯磺酰氯;",
    "alternate_name": "Benzenesulfonyl chloride, 4-acetyl-;Benzenesulfonyl chloride, <em>p</em>-acetyl-;4-Acetylbenzenesulfonyl chloride;4-Acetylphenylsulfonyl chloride;<em>p</em>-Acetylbenzenesulfonyl chloride;NSC 104128;4-Acetylbenzene-1-sulfonyl chloride;4-Acetylbenzensulfonyl chloride",
    "duplicated_cas_no": "",
    "SMILES": "S(Cl)(=O)(=O)C1=CC=C(C(C)=O)C=C1",
    "meta_data": {
        "InChI": "InChI=1S/C8H7ClO3S/c1-6(10)7-2-4-8(5-3-7)13(9,11)12/h2-5H,1H3",
        "InChIKey": null,
        "Canonical SMILES": "O=C(C1=CC=C(C=C1)S(=O)(=O)Cl)C",
        "Molecular Formula": "C<sub>8</sub>H<sub>7</sub>ClO<sub>3</sub>S",
        "Molecular Mass": "218.66",
        "Melting Point": "87-89 °C"
    }
}