{
    "cas_no": "474-73-7",
    "key_name": "24(<em>S</em>)-Hydroxycholesterol",
    "cn_name": null,
    "alternate_name": "Cholest-5-ene-3,24-diol, (3β,24<em>S</em>)-;Cholest-5-ene-3β,24-diol;(3β,24<em>S</em>)-Cholest-5-ene-3,24-diol;Cerebrosterol;24-Hydroxycholesterol;Cholest-5-ene-3β,24β-diol;Cerebrosterin;24<em>S</em>-Cholest-5-ene-3β,24-diol;(24<em>S</em>)-24-Hydroxycholesterol;24(<em>S</em>)-Hydroxycholesterol",
    "duplicated_cas_no": "27460-27-1",
    "SMILES": "C[C@@]12[C@]([C@]3([C@@]([C@]4(C)C(=CC3)C[C@@H](O)CC4)(CC1)[H])[H])(CC[C@@]2([C@@H](CC[C@@H](C(C)C)O)C)[H])[H]",
    "meta_data": {
        "InChI": "InChI=1S/C27H46O2/c1-17(2)25(29)11-6-18(3)22-9-10-23-21-8-7-19-16-20(28)12-14-26(19,4)24(21)13-15-27(22,23)5/h7,17-18,20-25,28-29H,6,8-16H2,1-5H3/t18-,20+,21+,22-,23+,24+,25+,26+,27-/m1/s1",
        "InChIKey": null,
        "Canonical SMILES": "OC1CC2=CCC3C(CCC4(C)C(CCC34)C(C)CCC(O)C(C)C)C2(C)CC1",
        "Molecular Formula": "C<sub>27</sub>H<sub>46</sub>O<sub>2</sub>",
        "Molecular Mass": "402.65",
        "Melting Point": "174-176 °C"
    }
}