{
    "cas_no": "620-67-7",
    "key_name": "Triheptanoin",
    "cn_name": null,
    "alternate_name": "Heptanoic acid, 1,1′,1′′-(1,2,3-propanetriyl) ester;Heptanoin, tri-;Heptanoic acid, 1,2,3-propanetriyl ester;Glycerol triheptanoate;Triheptanoin;Trioenanthoin;Triheptanoic glyceride;Trienanthoin;Glyceryl triheptanoate;Dermofeel TC 7;Lanol 37T;Dojolvi",
    "duplicated_cas_no": "",
    "SMILES": "C(OC(CCCCCC)=O)(COC(CCCCCC)=O)COC(CCCCCC)=O",
    "meta_data": {
        "InChI": "InChI=1S/C24H44O6/c1-4-7-10-13-16-22(25)28-19-21(30-24(27)18-15-12-9-6-3)20-29-23(26)17-14-11-8-5-2/h21H,4-20H2,1-3H3",
        "InChIKey": null,
        "Canonical SMILES": "O=C(OCC(OC(=O)CCCCCC)COC(=O)CCCCCC)CCCCCC",
        "Molecular Formula": "C<sub>24</sub>H<sub>44</sub>O<sub>6</sub>",
        "Molecular Mass": "428.60",
        "Boiling Point": "178 °C @ Press: 0.3 Torr",
        "Density": "0.904 g/cm³ @ Temp: 100 °C"
    }
}