{
    "cas_no": "57369-32-1",
    "key_name": "Pyroquilon",
    "cn_name": "咯喹酮;1，2，5，6-四氯吡咯并[3，2，1-ij]喹啉-4-酮;",
    "alternate_name": "4<em>H</em>-Pyrrolo[3,2,1-<em>ij</em>]quinolin-4-one, 1,2,5,6-tetrahydro-;1,2,5,6-Tetrahydro-4<em>H</em>-pyrrolo[3,2,1-<em>ij</em>]quinolin-4-one;Pyroquilone;CGA 49104;4-Lilolidone;Fongorene;CG 114;Coratop;Fungorene;Pyroquilon;4-Oxo-1,2,5,6-tetrahydro-4<em>H</em>-pyrrolo[3,2,1-<em>ij</em>]quinoline;1,2,5,6-Tetrahydropyrrolo[3,2,1-<em>ij</em>]quinolin-4-one;5,6-Dihydro-1<em>H</em>-pyrrolo[3,2,1-<em>ij</em>]quinolin-4(2<em>H</em>)-one",
    "duplicated_cas_no": "84930-99-4;1135442-73-7",
    "SMILES": "O=C1N2C3=C(CC1)C=CC=C3CC2",
    "meta_data": {
        "InChI": "InChI=1S/C11H11NO/c13-10-5-4-8-2-1-3-9-6-7-12(10)11(8)9/h1-3H,4-7H2",
        "InChIKey": null,
        "Canonical SMILES": "O=C1N2C=3C(=CC=CC3CC2)CC1",
        "Molecular Formula": "C<sub>11</sub>H<sub>11</sub>NO",
        "Molecular Mass": "173.21",
        "Melting Point": "112 °C"
    }
}