{
    "cas_no": "946-31-6",
    "key_name": "2-Chloro-4,6-dinitrophenol",
    "cn_name": "6-氯-2,4-二硝基苯酚;2-氯-4,6-二硝基苯酚;2-氯-4,6-二硝基酚;",
    "alternate_name": "Phenol, 2-chloro-4,6-dinitro-;2-Chloro-4,6-dinitrophenol;2,4-Dinitro-6-chlorophenol;6-Chloro-2,4-dinitrophenol;NSC 3;NSC 38993;NSC 6072",
    "duplicated_cas_no": "",
    "SMILES": "N(=O)(=O)C1=CC(N(=O)=O)=CC(Cl)=C1O",
    "meta_data": {
        "InChI": "InChI=1S/C6H3ClN2O5/c7-4-1-3(8(11)12)2-5(6(4)10)9(13)14/h1-2,10H",
        "InChIKey": null,
        "Canonical SMILES": "O=N(=O)C1=CC(Cl)=C(O)C(=C1)N(=O)=O",
        "Molecular Formula": "C<sub>6</sub>H<sub>3</sub>ClN<sub>2</sub>O<sub>5</sub>",
        "Molecular Mass": "218.55",
        "Melting Point": "113-114 °C"
    }
}