{
    "cas_no": "330-12-1",
    "key_name": "4-(Trifluoromethoxy)benzoic acid",
    "cn_name": "4-三氟甲氧基苯甲酸;4-(三氟甲氧基)苯甲酸;",
    "alternate_name": "Benzoic acid, 4-(trifluoromethoxy)-;<em>p</em>-Anisic acid, α,α,α-trifluoro-;4-(Trifluoromethoxy)benzoic acid;<em>p</em>-(Trifluoromethoxy)benzoic acid;4-(Trifluoromethyloxy)benzoic acid",
    "duplicated_cas_no": "2764684-56-0",
    "SMILES": "O(C(F)(F)F)C1=CC=C(C(O)=O)C=C1",
    "meta_data": {
        "InChI": "InChI=1S/C8H5F3O3/c9-8(10,11)14-6-3-1-5(2-4-6)7(12)13/h1-4H,(H,12,13)",
        "InChIKey": null,
        "Canonical SMILES": "O=C(O)C1=CC=C(OC(F)(F)F)C=C1",
        "Molecular Formula": "C<sub>8</sub>H<sub>5</sub>F<sub>3</sub>O<sub>3</sub>",
        "Molecular Mass": "206.12",
        "Melting Point": "152 °C"
    }
}