{
    "cas_no": "13423-73-9",
    "key_name": "4-Hydroxy-3,5-bis(1-methylethyl)benzoic acid",
    "cn_name": null,
    "alternate_name": "Benzoic acid, 4-hydroxy-3,5-bis(1-methylethyl)-;Benzoic acid, 4-hydroxy-3,5-diisopropyl-;4-Hydroxy-3,5-bis(1-methylethyl)benzoic acid;4-Hydroxy-3,5-diisopropylbenzoic acid;3,5-Diisopropyl-4-hydroxybenzoic acid",
    "duplicated_cas_no": "",
    "SMILES": "C(C)(C)C1=C(O)C(C(C)C)=CC(C(O)=O)=C1",
    "meta_data": {
        "InChI": "InChI=1S/C13H18O3/c1-7(2)10-5-9(13(15)16)6-11(8(3)4)12(10)14/h5-8,14H,1-4H3,(H,15,16)",
        "InChIKey": null,
        "Canonical SMILES": "O=C(O)C=1C=C(C(O)=C(C1)C(C)C)C(C)C",
        "Molecular Formula": "C<sub>13</sub>H<sub>18</sub>O<sub>3</sub>",
        "Molecular Mass": "222.28",
        "Melting Point": "141 °C"
    }
}