{
    "cas_no": "26098-04-4",
    "key_name": "Gentamicin C<sub>1a</sub>",
    "cn_name": null,
    "alternate_name": "<span class=\"text-smallcaps\">D</smallcap>-Streptamine, <em>O</em>-3-deoxy-4-<em>C</em>-methyl-3-(methylamino)-β-<smallcap>L</smallcap>-arabinopyranosyl-(1→6)-<em>O</em>-[2,6-diamino-2,3,4,6-tetradeoxy-α-<smallcap>D</span>-<em>erythro</em>-hexopyranosyl-(1→4)]-2-deoxy-;Gentamycin C<sub>1a</sub>;<em>O</em>-3-Deoxy-4-<em>C</em>-methyl-3-(methylamino)-β-<span class=\"text-smallcaps\">L</smallcap>-arabinopyranosyl-(1→6)-<em>O</em>-[2,6-diamino-2,3,4,6-tetradeoxy-α-<smallcap>D</smallcap>-<em>erythro</em>-hexopyranosyl-(1→4)]-2-deoxy-<smallcap>D</span>-streptamine;Gentamicin C<sub>1a</sub>;Gentamicin C<sub>3</sub>;Geneticin C<sub>1a</sub>",
    "duplicated_cas_no": "11087-65-3;58207-27-5;2256053-42-4",
    "SMILES": "O([C@@H]1[C@@H](O)[C@H](O[C@H]2O[C@H](CN)CC[C@H]2N)[C@@H](N)C[C@H]1N)[C@@H]3[C@H](O)[C@@H](NC)[C@@](C)(O)CO3",
    "meta_data": {
        "InChI": "InChI=1S/C19H39N5O7/c1-19(27)7-28-18(13(26)16(19)24-2)31-15-11(23)5-10(22)14(12(15)25)30-17-9(21)4-3-8(6-20)29-17/h8-18,24-27H,3-7,20-23H2,1-2H3/t8-,9+,10-,11+,12-,13+,14+,15-,16+,17+,18+,19-/m0/s1",
        "InChIKey": null,
        "Canonical SMILES": "OC1C(OCC(O)(C)C1NC)OC2C(O)C(OC3OC(CN)CCC3N)C(N)CC2N",
        "Molecular Formula": "C<sub>19</sub>H<sub>39</sub>N<sub>5</sub>O<sub>7</sub>",
        "Molecular Mass": "449.54",
        "Melting Point": "107-124 °C"
    }
}