{
    "cas_no": "3069-19-0",
    "key_name": "Hexyltrimethoxysilane",
    "cn_name": "己基三甲氧基硅烷;",
    "alternate_name": "Silane, hexyltrimethoxy-;Hexyltrimethoxysilane;<em>n</em>-Hexyltrimethoxysilane;H 7334;TSL 8241;HTS-M;KBM 3063;AY 43-206M;XC 98A9426;AZ 6177;KBM 3060;Z 6582;LS 3130;Trimethoxyhexylsilane;KBM 3036;Z 6583;Dowsil Z 6583",
    "duplicated_cas_no": "145054-84-8;560087-28-7;2332642-56-3",
    "SMILES": "[Si](CCCCCC)(OC)(OC)OC",
    "meta_data": {
        "InChI": "InChI=1S/C9H22O3Si/c1-5-6-7-8-9-13(10-2,11-3)12-4/h5-9H2,1-4H3",
        "InChIKey": null,
        "Canonical SMILES": "O(C)[Si](OC)(OC)CCCCCC",
        "Molecular Formula": "C<sub>9</sub>H<sub>22</sub>O<sub>3</sub>Si",
        "Molecular Mass": "206.35",
        "Boiling Point": "202-203 °C",
        "Density": "0.911 g/cm³ @ Temp: 25 °C"
    }
}