{
    "cas_no": "2050-20-6",
    "key_name": "Diethyl pimelate",
    "cn_name": "庚二酸二乙酯;",
    "alternate_name": "Heptanedioic acid, 1,7-diethyl ester;Pimelic acid, diethyl ester;Heptanedioic acid, diethyl ester;Diethyl pimelate;Diethyl heptanedioate;NSC 17503",
    "duplicated_cas_no": "",
    "SMILES": "C(CCCCCC(OCC)=O)(OCC)=O",
    "meta_data": {
        "InChI": "InChI=1S/C11H20O4/c1-3-14-10(12)8-6-5-7-9-11(13)15-4-2/h3-9H2,1-2H3",
        "InChIKey": null,
        "Canonical SMILES": "O=C(OCC)CCCCCC(=O)OCC",
        "Molecular Formula": "C<sub>11</sub>H<sub>20</sub>O<sub>4</sub>",
        "Molecular Mass": "216.27",
        "Boiling Point": "254 °C",
        "Melting Point": "-24 °C",
        "Density": "0.991-0.996 g/cm³ @ Temp: 20 °C"
    }
}