{
    "cas_no": "1746-11-8",
    "key_name": "2,3-Dihydro-2-methylbenzofuran",
    "cn_name": "2,3-二氢-2-甲氧苯并呋喃;",
    "alternate_name": "Benzofuran, 2,3-dihydro-2-methyl-;2,3-Dihydro-2-methylbenzofuran;2-Methyl-2,3-dihydrobenzofuran;2-Methylcoumaran;2,3-Dihydro-2-methylbenzo[<em>b</em>]furan;2-Methyl-2,3-dihydro-1-benzo[<em>b</em>]furan;NSC 403556;2-Methyl-2,3-dihydrobenzo[<em>b</em>]furan;2-Methyl-2,3-dihydro-1-benzofuran",
    "duplicated_cas_no": "",
    "SMILES": "CC1CC=2C(O1)=CC=CC2",
    "meta_data": {
        "InChI": "InChI=1S/C9H10O/c1-7-6-8-4-2-3-5-9(8)10-7/h2-5,7H,6H2,1H3",
        "InChIKey": null,
        "Canonical SMILES": "O1C=2C=CC=CC2CC1C",
        "Molecular Formula": "C<sub>9</sub>H<sub>10</sub>O",
        "Molecular Mass": "134.18",
        "Boiling Point": "197.5 °C",
        "Density": "1.038 g/cm³ @ Temp: 24 °C"
    }
}