{
    "cas_no": "2761-24-2",
    "key_name": "Pentyltriethoxysilane",
    "cn_name": "三乙氧基戊基硅烷;戊基三乙氧基硅烷;",
    "alternate_name": "Silane, triethoxypentyl-;Triethoxypentylsilane;Amyltriethoxysilane;A 16;Pentyltriethoxysilane;LS 4230;A 16 (silane derivative);<em>n</em>-Pentyltriethoxysilane",
    "duplicated_cas_no": "",
    "SMILES": "[Si](CCCCC)(OCC)(OCC)OCC",
    "meta_data": {
        "InChI": "InChI=1S/C11H26O3Si/c1-5-9-10-11-15(12-6-2,13-7-3)14-8-4/h5-11H2,1-4H3",
        "InChIKey": null,
        "Canonical SMILES": "O(CC)[Si](OCC)(OCC)CCCCC",
        "Molecular Formula": "C<sub>11</sub>H<sub>26</sub>O<sub>3</sub>Si",
        "Molecular Mass": "234.41",
        "Boiling Point": "95-96 °C @ Press: 1.3 Torr",
        "Density": "0.895 g/cm³"
    }
}