{
    "cas_no": "6980-25-2",
    "key_name": "Swertiajaponin",
    "cn_name": null,
    "alternate_name": "4<em>H</em>-1-Benzopyran-4-one, 2-(3,4-dihydroxyphenyl)-6-β-<span class=\"text-smallcaps\">D</span>-glucopyranosyl-5-hydroxy-7-methoxy-;Swertiajaponin;Flavone, 6-β-<span class=\"text-smallcaps\">D</span>-glucopyranosyl-3′,4′,5-trihydroxy-7-methoxy-;2-(3,4-Dihydroxyphenyl)-6-β-<span class=\"text-smallcaps\">D</span>-glucopyranosyl-5-hydroxy-7-methoxy-4<em>H</em>-1-benzopyran-4-one;Leucanthoside",
    "duplicated_cas_no": "",
    "SMILES": "O(C)C1=C(C(O)=C2C(=C1)OC(=CC2=O)C3=CC(O)=C(O)C=C3)[C@@H]4O[C@H](CO)[C@@H](O)[C@H](O)[C@H]4O",
    "meta_data": {
        "InChI": "InChI=1S/C22H22O11/c1-31-13-6-14-16(11(26)5-12(32-14)8-2-3-9(24)10(25)4-8)19(28)17(13)22-21(30)20(29)18(27)15(7-23)33-22/h2-6,15,18,20-25,27-30H,7H2,1H3/t15-,18-,20+,21-,22+/m1/s1",
        "InChIKey": null,
        "Canonical SMILES": "O=C1C=C(OC=2C=C(OC)C(=C(O)C12)C3OC(CO)C(O)C(O)C3O)C=4C=CC(O)=C(O)C4",
        "Molecular Formula": "C<sub>22</sub>H<sub>22</sub>O<sub>11</sub>",
        "Molecular Mass": "462.40",
        "Melting Point": "270 °C"
    }
}