{
    "cas_no": "5164-76-1",
    "key_name": "1,5-Dimethyl 2-pentenedioate",
    "cn_name": "戊烯二酸二甲酯;",
    "alternate_name": "2-Pentenedioic acid, 1,5-dimethyl ester;Glutaconic acid, dimethyl ester;2-Pentenedioic acid, dimethyl ester;1,5-Dimethyl 2-pentenedioate;Dimethyl glutaconate;Dimethyl 2-pentenedioate;Dimethyl 2-pentene-1,5-dioate;NSC 30046",
    "duplicated_cas_no": "",
    "SMILES": "C(C=CC(OC)=O)C(OC)=O",
    "meta_data": {
        "InChI": "InChI=1S/C7H10O4/c1-10-6(8)4-3-5-7(9)11-2/h3-4H,5H2,1-2H3",
        "InChIKey": null,
        "Canonical SMILES": "O=C(OC)C=CCC(=O)OC",
        "Molecular Formula": "C<sub>7</sub>H<sub>10</sub>O<sub>4</sub>",
        "Molecular Mass": "158.15",
        "Boiling Point": "89 °C"
    }
}