{
    "cas_no": "38585-61-4",
    "key_name": "1<em>H</em>-Imidazole, 5-(chloromethyl)-, hydrochloride (1:1)",
    "cn_name": "4-(氯甲基)-1H-咪唑盐酸盐;",
    "alternate_name": "1<em>H</em>-Imidazole, 5-(chloromethyl)-, hydrochloride (1:1);1<em>H</em>-Imidazole, 4-(chloromethyl)-, monohydrochloride;4-(Chloromethyl)imidazole hydrochloride;4-Chloromethyl-1<em>H</em>-imidazole hydrochloride;5-(Chloromethyl)-1<em>H</em>-imidazole hydrochloride",
    "duplicated_cas_no": "31036-72-3",
    "SMILES": "C(Cl)C1=CN=CN1.Cl",
    "meta_data": {
        "InChI": "InChI=1S/C4H5ClN2.ClH/c5-1-4-2-6-3-7-4;/h2-3H,1H2,(H,6,7);1H",
        "InChIKey": null,
        "Canonical SMILES": "Cl.ClCC1=CN=CN1",
        "Molecular Formula": "C<sub>4</sub>H<sub>5</sub>ClN<sub>2</sub>.ClH",
        "Molecular Mass": "",
        "Melting Point": "144-146 °C"
    }
}