{
    "cas_no": "28874-51-3",
    "key_name": "Sodium pyroglutamate",
    "cn_name": "L-吡咯烷酮-5-羧酸钠;吡咯烷酮羧酸钠;",
    "alternate_name": "<span class=\"text-smallcaps\">L</span>-Proline, 5-oxo-, sodium salt (1:1);Proline, 5-oxo-, monosodium salt, <span class=\"text-smallcaps\">L</span>-;<span class=\"text-smallcaps\">L</span>-Proline, 5-oxo-, monosodium salt;2-Pyrrolidinone-5-carboxylic acid sodium salt;Sodium 2-pyrrolidinone-5-carboxylate;Sodium 2-oxo-5-pyrrolidinecarboxylate;5-Carboxy-2-pyrrolidone sodium salt;Sodium 2-pyrrolidone-5-carboxylate;Sodium <span class=\"text-smallcaps\">L</span>-pyroglutamate;2-Pyrrolidone-5-carboxylic acid sodium salt;Sodium pyrrolidone-5-carboxylate;Sodium <span class=\"text-smallcaps\">L</span>-pyrrolidonecarboxylate;Sodium pidolate;Sodium pyroglutamate;Ajidew NL 50;PDSI 101;Prodew 300;Monosodium <span class=\"text-smallcaps\">L</span>-pyroglutamate;NL 50",
    "duplicated_cas_no": "2494-03-3;52497-17-3;53935-45-8",
    "SMILES": "C(O)(=O)[C@H]1NC(=O)CC1.[Na]",
    "meta_data": {
        "InChI": "InChI=1S/C5H7NO3.Na/c7-4-2-1-3(6-4)5(8)9;/h3H,1-2H2,(H,6,7)(H,8,9);/t3-;/m0./s1",
        "InChIKey": null,
        "Canonical SMILES": "[Na].O=C1NC(C(=O)O)CC1",
        "Molecular Formula": "C<sub>5</sub>H<sub>7</sub>NO<sub>3</sub>.Na",
        "Molecular Mass": "",
        "Melting Point": "42 °C"
    }
}