{
    "cas_no": "2424-62-6",
    "key_name": "1-Octadecyl (2<em>Z</em>)-2-butenedioate",
    "cn_name": null,
    "alternate_name": "2-Butenedioic acid (2<em>Z</em>)-, 1-octadecyl ester;Maleic acid, monooctadecyl ester;2-Butenedioic acid (<em>Z</em>)-, monooctadecyl ester;Maleic acid, octadecyl ester;2-Butenedioic acid (2<em>Z</em>)-, monooctadecyl ester;1-Octadecyl (2<em>Z</em>)-2-butenedioate;Monostearyl maleate;Octadecyl hydrogen maleate;Monooctadecyl maleate",
    "duplicated_cas_no": "",
    "SMILES": "C(COC(/C=C\\C(O)=O)=O)CCCCCCCCCCCCCCCC",
    "meta_data": {
        "InChI": "InChI=1S/C22H40O4/c1-2-3-4-5-6-7-8-9-10-11-12-13-14-15-16-17-20-26-22(25)19-18-21(23)24/h18-19H,2-17,20H2,1H3,(H,23,24)/b19-18-",
        "InChIKey": null,
        "Canonical SMILES": "O=C(O)C=CC(=O)OCCCCCCCCCCCCCCCCCC",
        "Molecular Formula": "C<sub>22</sub>H<sub>40</sub>O<sub>4</sub>",
        "Molecular Mass": "368.55",
        "Melting Point": "78 °C"
    }
}