{
    "cas_no": "628-29-5",
    "key_name": "Butyl methyl sulfide",
    "cn_name": "N-丁基甲基硫醚;",
    "alternate_name": "Butane, 1-(methylthio)-;Sulfide, butyl methyl;1-(Methylthio)butane;Methyl butyl sulfide;Butyl methyl sulfide;Butyl methyl thioether;2-Thiahexane;α-(Methylthio)butane;<em>n</em>-Butyl methyl sulfide;Methyl <em>n</em>-butyl sulfide;1-Methylsulfanylbutane;1-(Methylsulfanyl)butane",
    "duplicated_cas_no": "",
    "SMILES": "C(CSC)CC",
    "meta_data": {
        "InChI": "InChI=1S/C5H12S/c1-3-4-5-6-2/h3-5H2,1-2H3",
        "InChIKey": null,
        "Canonical SMILES": "S(C)CCCC",
        "Molecular Formula": "C<sub>5</sub>H<sub>12</sub>S",
        "Molecular Mass": "104.21",
        "Boiling Point": "123.5 °C",
        "Melting Point": "-97.8 °C",
        "Density": "0.8427 g/cm³ @ Temp: 20 °C"
    }
}