{
    "cas_no": "4549-33-1",
    "key_name": "1,9-Dibromononane",
    "cn_name": "1,9-二溴壬烷;",
    "alternate_name": "Nonane, 1,9-dibromo-;1,9-Dibromononane;NSC 62682",
    "duplicated_cas_no": "",
    "SMILES": "C(CCCCBr)CCCCBr",
    "meta_data": {
        "InChI": "InChI=1S/C9H18Br2/c10-8-6-4-2-1-3-5-7-9-11/h1-9H2",
        "InChIKey": null,
        "Canonical SMILES": "BrCCCCCCCCCBr",
        "Molecular Formula": "C<sub>9</sub>H<sub>18</sub>Br<sub>2</sub>",
        "Molecular Mass": "286.05",
        "Boiling Point": "154-155 °C @ Press: 10 Torr",
        "Melting Point": "-22.5 °C",
        "Density": "0.7142 g/cm³"
    }
}