{
    "cas_no": "10017-44-4",
    "key_name": "1-Propanaminium, 3-carboxy-2-hydroxy-<em>N</em>,<em>N</em>,<em>N</em>-trimethyl-, chloride (1:1), (2<em>S</em>)-",
    "cn_name": "L-肉碱盐酸盐;左旋肉碱盐酸盐;",
    "alternate_name": "1-Propanaminium, 3-carboxy-2-hydroxy-<em>N</em>,<em>N</em>,<em>N</em>-trimethyl-, chloride (1:1), (2<em>S</em>)-;Ammonium, (3-carboxy-2-hydroxypropyl)trimethyl-, chloride, (+)-;1-Propanaminium, 3-carboxy-2-hydroxy-<em>N</em>,<em>N</em>,<em>N</em>-trimethyl-, chloride, (<em>S</em>)-;1-Propanaminium, 3-carboxy-2-hydroxy-<em>N</em>,<em>N</em>,<em>N</em>-trimethyl-, chloride, (2<em>S</em>)-;(+)-Carnitine hydrochloride;(<em>S</em>)-Carnitine hydrochloride;<em>d</em>-Carnitine chloride;(<em>S</em>)-3-Carboxy-2-hydroxy-<em>N</em>,<em>N</em>,<em>N</em>-trimethylpropan-1-aminium chloride;(<em>S</em>)-3-Hydroxy-4-(trimethylammonio)butanoate hydrochloride",
    "duplicated_cas_no": "6645-48-3",
    "SMILES": "C([N+](C)(C)C)[C@H](CC(O)=O)O.[Cl-]",
    "meta_data": {
        "InChI": "InChI=1S/C7H15NO3.ClH/c1-8(2,3)5-6(9)4-7(10)11;/h6,9H,4-5H2,1-3H3;1H/t6-;/m0./s1",
        "InChIKey": null,
        "Canonical SMILES": "[Cl-].O=C(O)CC(O)C[N+](C)(C)C",
        "Molecular Formula": "C<sub>7</sub>H<sub>16</sub>NO<sub>3</sub>.Cl",
        "Molecular Mass": "",
        "Melting Point": "135-137 °C"
    }
}