{
    "cas_no": "5981-09-9",
    "key_name": "<em>N</em><sup>1</sup>,<em>N</em><sup>1</sup>-Bis(4-aminophenyl)-1,4-benzenediamine",
    "cn_name": "三(4-氨基苯基)胺;",
    "alternate_name": "1,4-Benzenediamine, <em>N</em><sup>1</sup>,<em>N</em><sup>1</sup>-bis(4-aminophenyl)-;Triphenylamine, 4,4′,4′′-triamino-;1,4-Benzenediamine, <em>N</em>,<em>N</em>-bis(4-aminophenyl)-;<em>N</em><sup>1</sup>,<em>N</em><sup>1</sup>-Bis(4-aminophenyl)-1,4-benzenediamine;Tris(<em>p</em>-aminophenyl)amine;Tris(4-aminophenyl)amine;4,4′,4′′-Triaminotriphenylamine;<em>N</em>,<em>N</em>-Bis(4-aminophenyl)-1,4-benzenediamine",
    "duplicated_cas_no": "",
    "SMILES": "N(C1=CC=C(N)C=C1)(C2=CC=C(N)C=C2)C3=CC=C(N)C=C3",
    "meta_data": {
        "InChI": "InChI=1S/C18H18N4/c19-13-1-7-16(8-2-13)22(17-9-3-14(20)4-10-17)18-11-5-15(21)6-12-18/h1-12H,19-21H2",
        "InChIKey": null,
        "Canonical SMILES": "NC1=CC=C(C=C1)N(C2=CC=C(N)C=C2)C3=CC=C(N)C=C3",
        "Molecular Formula": "C<sub>18</sub>H<sub>18</sub>N<sub>4</sub>",
        "Molecular Mass": "290.36",
        "Melting Point": "244.92 °C"
    }
}