{
    "cas_no": "79-19-6",
    "key_name": "Thiosemicarbazide",
    "cn_name": "硫代氨基脲;氨基硫脲;",
    "alternate_name": "Hydrazinecarbothioamide;Semicarbazide, thio-;<em>N</em>-Aminothiourea;TSC;TSZ;Isothiosemicarbazide;Thiosemicarbazide;Thiocarbamoylhydrazine;Thiasemicarbazide;1-Aminothiourea;2-Thiosemicarbazide;1-Amino-2-thiourea;Aminohydrazinomethane-1-thione;NSC 2213;NSC 31792;Aminothiourea;Carbamothioic acid, hydrazide;Hydrazinesulfinamide;Hydrazincarbothioamide",
    "duplicated_cas_no": "1393653-11-6",
    "SMILES": "C(NN)(N)=S",
    "meta_data": {
        "InChI": "InChI=1S/CH5N3S/c2-1(5)4-3/h3H2,(H3,2,4,5)",
        "InChIKey": null,
        "Canonical SMILES": "S=C(N)NN",
        "Molecular Formula": "CH<sub>5</sub>N<sub>3</sub>S",
        "Molecular Mass": "91.14",
        "Melting Point": "183 °C"
    }
}