{
    "cas_no": "26001-38-7",
    "key_name": "8-Mercaptoguanosine",
    "cn_name": null,
    "alternate_name": "Guanosine, 7,8-dihydro-8-thioxo-;Guanosine, 8-mercapto-;7,8-Dihydro-8-thioxoguanosine;8-Thioguanosine;8-Mercaptoguanosine;SQ 12760;NSC 79216",
    "duplicated_cas_no": "29836-03-1",
    "SMILES": "S=C1N(C2=C(N1)C(=O)N=C(N)N2)[C@@H]3O[C@H](CO)[C@@H](O)[C@H]3O",
    "meta_data": {
        "InChI": "InChI=1S/C10H13N5O5S/c11-9-13-6-3(7(19)14-9)12-10(21)15(6)8-5(18)4(17)2(1-16)20-8/h2,4-5,8,16-18H,1H2,(H,12,21)(H3,11,13,14,19)/t2-,4-,5-,8-/m1/s1",
        "InChIKey": null,
        "Canonical SMILES": "O=C1N=C(N)NC2=C1NC(=S)N2C3OC(CO)C(O)C3O",
        "Molecular Formula": "C<sub>10</sub>H<sub>13</sub>N<sub>5</sub>O<sub>5</sub>S",
        "Molecular Mass": "315.31",
        "Melting Point": "&gt;220 °C"
    }
}