{
    "cas_no": "5351-51-9",
    "key_name": "4,5-Dimethyl-2(3<em>H</em>)-thiazolethione",
    "cn_name": "4,5-二甲基-2-巯基噻唑;4,5-二甲基噻唑-2-硫醇;",
    "alternate_name": "2(3<em>H</em>)-Thiazolethione, 4,5-dimethyl-;4-Thiazoline-2-thione, 4,5-dimethyl-;2-Thiazolethiol, 4,5-dimethyl-;4,5-Dimethyl-2(3<em>H</em>)-thiazolethione;2-Mercapto-4,5-dimethylthiazole;4,5-Dimethyl-Δ<sup>4</sup>-thiazoline-2-thione;4,5-Dimethyl-2-thiazolethiol;4,5-Dimethyl-2-mercaptothiazole;NSC 681;4,5-Dimethyl-1,3-thiazol-2(3<em>H</em>)-thione",
    "duplicated_cas_no": "16565-72-3",
    "SMILES": "CC1=C(C)SC(=S)N1",
    "meta_data": {
        "InChI": "InChI=1S/C5H7NS2/c1-3-4(2)8-5(7)6-3/h1-2H3,(H,6,7)",
        "InChIKey": null,
        "Canonical SMILES": "S=C1SC(=C(N1)C)C",
        "Molecular Formula": "C<sub>5</sub>H<sub>7</sub>NS<sub>2</sub>",
        "Molecular Mass": "145.25",
        "Boiling Point": "190-200 °C @ Press: 2 Torr",
        "Melting Point": "41-41.2 °C"
    }
}