{
    "cas_no": "79831-76-8",
    "key_name": "(+)-Castanospermine",
    "cn_name": "栗精胺;",
    "alternate_name": "1,6,7,8-Indolizinetetrol, octahydro-, (1<em>S</em>,6<em>S</em>,7<em>R</em>,8<em>R</em>,8a<em>R</em>)-;1,6,7,8-Indolizinetetrol, octahydro-, [1<em>S</em>-(1α,6β,7α,8β,8aβ)]-;(1<em>S</em>,6<em>S</em>,7<em>R</em>,8<em>R</em>,8a<em>R</em>)-Octahydro-1,6,7,8-indolizinetetrol;Castanospermine;(+)-Castanospermine;NSC 614552",
    "duplicated_cas_no": "",
    "SMILES": "O[C@@H]1[C@@]2(N(C[C@H](O)[C@H]1O)CC[C@@H]2O)[H]",
    "meta_data": {
        "InChI": "InChI=1S/C8H15NO4/c10-4-1-2-9-3-5(11)7(12)8(13)6(4)9/h4-8,10-13H,1-3H2/t4-,5-,6+,7+,8+/m0/s1",
        "InChIKey": null,
        "Canonical SMILES": "OC1CN2CCC(O)C2C(O)C1O",
        "Molecular Formula": "C<sub>8</sub>H<sub>15</sub>NO<sub>4</sub>",
        "Molecular Mass": "189.21",
        "Melting Point": "202-208 °C (decomp)"
    }
}