{
    "cas_no": "86153-25-5",
    "key_name": "7-Bromo-1<em>H</em>-indole-3-carboxylic acid",
    "cn_name": null,
    "alternate_name": "1<em>H</em>-Indole-3-carboxylic acid, 7-bromo-;Indole-3-carboxylic acid, 7-bromo-;7-Bromo-1<em>H</em>-indole-3-carboxylic acid;7-Bromoindole-3-carboxylic acid",
    "duplicated_cas_no": "",
    "SMILES": "C(O)(=O)C=1C=2C(NC1)=C(Br)C=CC2",
    "meta_data": {
        "InChI": "InChI=1S/C9H6BrNO2/c10-7-3-1-2-5-6(9(12)13)4-11-8(5)7/h1-4,11H,(H,12,13)",
        "InChIKey": null,
        "Canonical SMILES": "O=C(O)C1=CNC=2C(Br)=CC=CC12",
        "Molecular Formula": "C<sub>9</sub>H<sub>6</sub>BrNO<sub>2</sub>",
        "Molecular Mass": "240.05",
        "Melting Point": "215-217 °C"
    }
}