{
    "cas_no": "4329-78-6",
    "key_name": "4,4′-(1<em>H</em>-1,2,4-Triazole-3,5-diyl)bis[pyridine]",
    "cn_name": null,
    "alternate_name": "Pyridine, 4,4′-(1<em>H</em>-1,2,4-triazole-3,5-diyl)bis-;Pyridine, 4,4′-<em>s</em>-triazole-3,5-diyldi-;4,4′-(1<em>H</em>-1,2,4-Triazole-3,5-diyl)bis[pyridine];3,5-Di(4-pyridyl)-1,2,4-triazole;3,5-Bis(4-pyridyl)-1,2,4-triazole;3,5-Bis(γ-pyridyl)-1<em>H</em>-1,2,4-triazole;3,5-Bis(4-pyridyl)-1<em>H</em>-1,2,4-triazole;3,5-Di(4-pyridinyl)-1,2,4-triazole;1<em>H</em>-3,5-Di(4-pyridyl)-1,2,4-triazole;1<em>H</em>-3,5-Bis(4-pyridyl)-1,2,4-triazole;3,5-Bis(pyridin-4-yl)-1,2,4-triazole",
    "duplicated_cas_no": "",
    "SMILES": "C=1(NC(=NN1)C=2C=CN=CC2)C=3C=CN=CC3",
    "meta_data": {
        "InChI": "InChI=1S/C12H9N5/c1-5-13-6-2-9(1)11-15-12(17-16-11)10-3-7-14-8-4-10/h1-8H,(H,15,16,17)",
        "InChIKey": null,
        "Canonical SMILES": "N=1N=C(NC1C=2C=CN=CC2)C=3C=CN=CC3",
        "Molecular Formula": "C<sub>12</sub>H<sub>9</sub>N<sub>5</sub>",
        "Molecular Mass": "223.23",
        "Melting Point": "286-289 °C"
    }
}