{
    "cas_no": "1746-23-2",
    "key_name": "4-<em>tert</em>-Butylstyrene",
    "cn_name": "4-叔丁基苯乙烯;",
    "alternate_name": "Benzene, 1-(1,1-dimethylethyl)-4-ethenyl-;Styrene, <em>p</em>-<em>tert</em>-butyl-;1-(1,1-Dimethylethyl)-4-ethenylbenzene;<em>p</em>-<em>tert</em>-Butylstyrene;4-<em>tert</em>-Butylstyrene;1-<em>tert</em>-Butyl-4-vinylbenzene;1-<em>tert</em>-Butyl-4-ethenylbenzene;<em>p</em>-<em>t</em>-Butylstyrene;4-<em>t</em>-Butylstyrene;1-Ethenyl-4-<em>tert</em>-butylbenzene;4-<em>tert</em>-Butyl-1-ethenylbenzene;<em>p</em>-<em>tert</em>-Butyltyrene",
    "duplicated_cas_no": "2056117-86-1",
    "SMILES": "C(C)(C)(C)C1=CC=C(C=C)C=C1",
    "meta_data": {
        "InChI": "InChI=1S/C12H16/c1-5-10-6-8-11(9-7-10)12(2,3)4/h5-9H,1H2,2-4H3",
        "InChIKey": null,
        "Canonical SMILES": "C=CC1=CC=C(C=C1)C(C)(C)C",
        "Molecular Formula": "C<sub>12</sub>H<sub>16</sub>",
        "Molecular Mass": "160.26",
        "Boiling Point": "99-100 °C @ Press: 14 Torr",
        "Density": "0.8972 g/cm³ @ Temp: 20 °C"
    }
}