{
    "cas_no": "1515-80-6",
    "key_name": "Methyl 2,4-hexadienoate",
    "cn_name": "山梨酸甲酯;山梨酸甲酯;",
    "alternate_name": "2,4-Hexadienoic acid, methyl ester;Methyl 2,4-hexadienoate;NSC 33701",
    "duplicated_cas_no": "",
    "SMILES": "C(C=CC=CC)(OC)=O",
    "meta_data": {
        "InChI": "InChI=1S/C7H10O2/c1-3-4-5-6-7(8)9-2/h3-6H,1-2H3",
        "InChIKey": null,
        "Canonical SMILES": "O=C(OC)C=CC=CC",
        "Molecular Formula": "C<sub>7</sub>H<sub>10</sub>O<sub>2</sub>",
        "Molecular Mass": "126.15",
        "Boiling Point": "180 °C",
        "Melting Point": "15 °C",
        "Density": "0.9612 g/cm³ @ Temp: 20 °C"
    }
}