{
    "cas_no": "38260-54-7",
    "key_name": "Etrimfos",
    "cn_name": "乙氧嘧啶磷;仓贮硫磷；O，O-二甲基-O-(6-乙氧基-2-乙基-4-嘧啶基)硫代磷酸酯；乙氧嘧啶磷;",
    "alternate_name": "Phosphorothioic acid, <em>O</em>-(6-ethoxy-2-ethyl-4-pyrimidinyl) <em>O</em>,<em>O</em>-dimethyl ester;2-Ethyl-6-ethoxypyrimidin-4-yl dimethyl phosphorothionate;SAN-I 197;Etrimfos;Ekamet;SAN 197;Satisfar;Etrimphos",
    "duplicated_cas_no": "58319-01-0;61372-89-2",
    "SMILES": "O(P(OC)(OC)=S)C=1C=C(OCC)N=C(CC)N1",
    "meta_data": {
        "InChI": "InChI=1S/C10H17N2O4PS/c1-5-8-11-9(15-6-2)7-10(12-8)16-17(18,13-3)14-4/h7H,5-6H2,1-4H3",
        "InChIKey": null,
        "Canonical SMILES": "S=P(OC1=NC(=NC(OCC)=C1)CC)(OC)OC",
        "Molecular Formula": "C<sub>10</sub>H<sub>17</sub>N<sub>2</sub>O<sub>4</sub>PS",
        "Molecular Mass": "292.29",
        "Melting Point": "-3.35 °C",
        "Density": "1.195 g/cm³ @ Temp: 20 °C"
    }
}