{
    "cas_no": "692-50-2",
    "key_name": "Hexafluoro-2-butyne",
    "cn_name": "六氟-2-丁炔;",
    "alternate_name": "2-Butyne, 1,1,1,4,4,4-hexafluoro-;2-Butyne, hexafluoro-;1,1,1,4,4,4-Hexafluoro-2-butyne;Hexafluoro-2-butyne;Perfluoro-2-butyne;Bis(trifluoromethyl)acetylene",
    "duplicated_cas_no": "",
    "SMILES": "C(#CC(F)(F)F)C(F)(F)F",
    "meta_data": {
        "InChI": "InChI=1S/C4F6/c5-3(6,7)1-2-4(8,9)10",
        "InChIKey": null,
        "Canonical SMILES": "FC(F)(F)C#CC(F)(F)F",
        "Molecular Formula": "C<sub>4</sub>F<sub>6</sub>",
        "Molecular Mass": "162.03",
        "Boiling Point": "-24.6 °C",
        "Melting Point": "-117.4 °C"
    }
}