{
    "cas_no": "13623-87-5",
    "key_name": "1,2,3,4-Tetrahydro-1,8-naphthyridine",
    "cn_name": null,
    "alternate_name": "1,8-Naphthyridine, 1,2,3,4-tetrahydro-;1,2,3,4-Tetrahydro-1,8-naphthyridine",
    "duplicated_cas_no": "",
    "SMILES": "C=12C(NC=CC1)=NCCC2",
    "meta_data": {
        "InChI": "InChI=1S/C8H10N2/c1-3-7-4-2-6-10-8(7)9-5-1/h1,3,5H,2,4,6H2,(H,9,10)",
        "InChIKey": null,
        "Canonical SMILES": "N1=C2NC=CC=C2CCC1",
        "Molecular Formula": "C<sub>8</sub>H<sub>10</sub>N<sub>2</sub>",
        "Molecular Mass": "134.18",
        "Boiling Point": "96 °C @ Press: 0.6 Torr",
        "Melting Point": "67-68 °C"
    }
}