{
    "cas_no": "6953-61-3",
    "key_name": "<em>N</em>-Hydroxy-1-naphthalenecarboxamide",
    "cn_name": "1-萘羟肟酸;1-萘羟肟酸;",
    "alternate_name": "1-Naphthalenecarboxamide, <em>N</em>-hydroxy-;1-Naphthohydroxamic acid;<em>N</em>-Hydroxy-1-naphthalenecarboxamide;α-Naphthohydroxamic acid;NSC 57457",
    "duplicated_cas_no": "",
    "SMILES": "C(NO)(=O)C=1C2=C(C=CC1)C=CC=C2",
    "meta_data": {
        "InChI": "InChI=1S/C11H9NO2/c13-11(12-14)10-7-3-5-8-4-1-2-6-9(8)10/h1-7,14H,(H,12,13)",
        "InChIKey": null,
        "Canonical SMILES": "O=C(NO)C1=CC=CC=2C=CC=CC21",
        "Molecular Formula": "C<sub>11</sub>H<sub>9</sub>NO<sub>2</sub>",
        "Molecular Mass": "187.19",
        "Melting Point": "176-178 °C"
    }
}