{
    "cas_no": "4101-68-2",
    "key_name": "1,10-Dibromodecane",
    "cn_name": "1,10-二溴癸烷;",
    "alternate_name": "Decane, 1,10-dibromo-;1,10-Dibromodecane;Decamethylene dibromide;α,ω-Dibromodecane;NSC 6086",
    "duplicated_cas_no": "",
    "SMILES": "C(CCCCCBr)CCCCBr",
    "meta_data": {
        "InChI": "InChI=1S/C10H20Br2/c11-9-7-5-3-1-2-4-6-8-10-12/h1-10H2",
        "InChIKey": null,
        "Canonical SMILES": "BrCCCCCCCCCCBr",
        "Molecular Formula": "C<sub>10</sub>H<sub>20</sub>Br<sub>2</sub>",
        "Molecular Mass": "300.07",
        "Boiling Point": "161 °C",
        "Melting Point": "28 °C"
    }
}