{
    "cas_no": "57460-41-0",
    "key_name": "Talinolol",
    "cn_name": null,
    "alternate_name": "Urea, <em>N</em>-cyclohexyl-<em>N</em>′-[4-[3-[(1,1-dimethylethyl)amino]-2-hydroxypropoxy]phenyl]-;Urea, <em>N</em>-cyclohexyl-<em>N</em>′-[4-[3-[(1,1-dimethylethyl)amino]-2-hydroxypropoxy]phenyl]-, (±)-;<em>N</em>-Cyclohexyl-<em>N</em>′-[4-[3-[(1,1-dimethylethyl)amino]-2-hydroxypropoxy]phenyl]urea;Talinolol;1-(4-Cyclohexylureidophenoxy)-2-hydroxy-3-<em>tert</em>-butylaminopropane;Cordanum;(±)-Talinolol;Racemic talinolol;1-[4-(Cyclohexylureido)phenoxy]-3-(<em>tert</em>-butylamino)-2-propanol;1-[3-(3-Cyclohexylureido)phenoxy]-3-(<em>tert</em>-butylamino)-2-propanol;1-[4-[3-(<em>tert</em>-Butylamino)-2-hydroxypropoxy]phenyl]-3-cyclohexylurea",
    "duplicated_cas_no": "38649-73-9",
    "SMILES": "O(CC(CNC(C)(C)C)O)C1=CC=C(NC(NC2CCCCC2)=O)C=C1",
    "meta_data": {
        "InChI": "InChI=1S/C20H33N3O3/c1-20(2,3)21-13-17(24)14-26-18-11-9-16(10-12-18)23-19(25)22-15-7-5-4-6-8-15/h9-12,15,17,21,24H,4-8,13-14H2,1-3H3,(H2,22,23,25)",
        "InChIKey": null,
        "Canonical SMILES": "O=C(NC1=CC=C(OCC(O)CNC(C)(C)C)C=C1)NC2CCCCC2",
        "Molecular Formula": "C<sub>20</sub>H<sub>33</sub>N<sub>3</sub>O<sub>3</sub>",
        "Molecular Mass": "363.49",
        "Melting Point": "142-144 °C"
    }
}