{
    "cas_no": "10391-09-0",
    "key_name": "Nodosin (terpene)",
    "cn_name": null,
    "alternate_name": "Enmein, 13-deoxy-5-hydroxy-, (5β)-;5<em>H</em>-5a,8-Methano-11<em>H</em>-cyclohepta[<em>c</em>]furo[3,4-<em>e</em>][1]benzopyran-5,6(7<em>H</em>)-dione, 1,2,3,3aβ,8β,9,10,10aα,13,13aβ-decahydro-10β,13β-dihydroxy-1,1-dimethyl-7-methylene-, (-)-;Nodosin;5<em>H</em>-5a,8-Methano-11<em>H</em>-cyclohepta[<em>c</em>]furo[3,4-<em>e</em>][1]benzopyran, enmein deriv.;(5β)-13-Deoxy-5-hydroxyenmein;Nodosin (terpene);NSC 285659;11-Deacetylsinuolatin E",
    "duplicated_cas_no": "99711-39-4",
    "SMILES": "O[C@H]1[C@]2([C@]34[C@]([C@H](O)OC3)(C(C)(C)CC[C@@]4(OC(=O)[C@@]25C[C@@](C1)(C(=C)C5=O)[H])[H])[H])[H]",
    "meta_data": {
        "InChI": "InChI=1S/C20H26O6/c1-9-10-6-11(21)13-19(7-10,15(9)22)17(24)26-12-4-5-18(2,3)14-16(23)25-8-20(12,13)14/h10-14,16,21,23H,1,4-8H2,2-3H3/t10-,11-,12+,13-,14-,16-,19+,20+/m1/s1",
        "InChIKey": null,
        "Canonical SMILES": "O=C1OC2CCC(C)(C)C3C(O)OCC23C4C(O)CC5C(=C)C(=O)C14C5",
        "Molecular Formula": "C<sub>20</sub>H<sub>26</sub>O<sub>6</sub>",
        "Molecular Mass": "362.42",
        "Melting Point": "274-276 °C"
    }
}