{
    "cas_no": "934-48-5",
    "key_name": "3,5-Dimethyl-1<em>H</em>-pyrazole-1-carboxamide",
    "cn_name": "3,5-二甲基吡唑-1-甲酰氨;3,5-二甲基-1H-吡唑-1-羰酰胺;",
    "alternate_name": "1<em>H</em>-Pyrazole-1-carboxamide, 3,5-dimethyl-;Pyrazole-1-carboxamide, 3,5-dimethyl-;3,5-Dimethyl-1<em>H</em>-pyrazole-1-carboxamide;3,5-Dimethylpyrazole-1-carboxamide;1-Carbamido-3,5-dimethylpyrazole;1-Carbamoyl-3,5-dimethylpyrazole;3,5-Dimethyl-1-carbamidopyrazole;NSC 51106;NSC 56168;NSC 70738",
    "duplicated_cas_no": "",
    "SMILES": "C(N)(=O)N1N=C(C)C=C1C",
    "meta_data": {
        "InChI": "InChI=1S/C6H9N3O/c1-4-3-5(2)9(8-4)6(7)10/h3H,1-2H3,(H2,7,10)",
        "InChIKey": null,
        "Canonical SMILES": "O=C(N)N1N=C(C=C1C)C",
        "Molecular Formula": "C<sub>6</sub>H<sub>9</sub>N<sub>3</sub>O",
        "Molecular Mass": "139.16",
        "Melting Point": "107-108 °C"
    }
}