{
    "cas_no": "68797-61-5",
    "key_name": "5-Bromo-4,6-dichloropyrimidine",
    "cn_name": "4,6-二氯-5-溴嘧啶;",
    "alternate_name": "Pyrimidine, 5-bromo-4,6-dichloro-;5-Bromo-4,6-dichloropyrimidine",
    "duplicated_cas_no": "",
    "SMILES": "BrC=1C(Cl)=NC=NC1Cl",
    "meta_data": {
        "InChI": "InChI=1S/C4HBrCl2N2/c5-2-3(6)8-1-9-4(2)7/h1H",
        "InChIKey": null,
        "Canonical SMILES": "ClC1=NC=NC(Cl)=C1Br",
        "Molecular Formula": "C<sub>4</sub>HBrCl<sub>2</sub>N<sub>2</sub>",
        "Molecular Mass": "227.87",
        "Melting Point": "75-76 °C"
    }
}