{
    "cas_no": "1675-02-1",
    "key_name": "Erythromycin C",
    "cn_name": null,
    "alternate_name": "Erythromycin, 3′′-<em>O</em>-demethyl-;Erythromycin C;Oxacyclotetradecane, erythromycin deriv.;3′′-<em>O</em>-Demethylerythromycin",
    "duplicated_cas_no": "83828-93-7",
    "SMILES": "O([C@@H]1[C@@H](C)[C@H](O[C@H]2C[C@@](C)(O)[C@@H](O)[C@H](C)O2)[C@@H](C)C(=O)O[C@H](CC)[C@@](C)(O)[C@H](O)[C@@H](C)C(=O)[C@H](C)C[C@@]1(C)O)[C@H]3[C@H](O)[C@@H](N(C)C)C[C@@H](C)O3",
    "meta_data": {
        "InChI": "InChI=1S/C36H65NO13/c1-13-24-36(10,45)29(40)19(4)26(38)17(2)15-35(9,44)31(50-33-27(39)23(37(11)12)14-18(3)46-33)20(5)28(21(6)32(42)48-24)49-25-16-34(8,43)30(41)22(7)47-25/h17-25,27-31,33,39-41,43-45H,13-16H2,1-12H3/t17-,18-,19+,20+,21-,22+,23+,24-,25+,27-,28+,29-,30+,31-,33+,34-,35-,36-/m1/s1",
        "InChIKey": null,
        "Canonical SMILES": "O=C1OC(CC)C(O)(C)C(O)C(C(=O)C(C)CC(O)(C)C(OC2OC(C)CC(N(C)C)C2O)C(C)C(OC3OC(C)C(O)C(O)(C)C3)C1C)C",
        "Molecular Formula": "C<sub>36</sub>H<sub>65</sub>NO<sub>13</sub>",
        "Molecular Mass": "719.90",
        "Melting Point": "121-125 °C"
    }
}