{
    "cas_no": "1481-27-2",
    "key_name": "1-(4-Fluoro-2-hydroxyphenyl)ethanone",
    "cn_name": "4-氟-2-羟基苯乙酮;",
    "alternate_name": "Ethanone, 1-(4-fluoro-2-hydroxyphenyl)-;Acetophenone, 4′-fluoro-2′-hydroxy-;1-(4-Fluoro-2-hydroxyphenyl)ethanone;2-Hydroxy-4-fluoroacetophenone;4′-Fluoro-2′-hydroxyacetophenone;4-Fluoro-2-hydroxyacetophenone;1-(2-Hydroxy-4-fluorophenyl)ethanone;2-Acetyl-5-fluorophenol;2′-Hydroxy-4′-fluorophenyl methyl ketone;1-(4-Fluoro-2-hydroxyphenyl)ethan-1-one",
    "duplicated_cas_no": "1039415-73-0",
    "SMILES": "C(C)(=O)C1=C(O)C=C(F)C=C1",
    "meta_data": {
        "InChI": "InChI=1S/C8H7FO2/c1-5(10)7-3-2-6(9)4-8(7)11/h2-4,11H,1H3",
        "InChIKey": null,
        "Canonical SMILES": "O=C(C1=CC=C(F)C=C1O)C",
        "Molecular Formula": "C<sub>8</sub>H<sub>7</sub>FO<sub>2</sub>",
        "Molecular Mass": "154.14",
        "Melting Point": "24 °C"
    }
}