{
    "cas_no": "14243-64-2",
    "key_name": "Chloro(triphenylphosphine)gold",
    "cn_name": "三苯基膦氯金;",
    "alternate_name": "Gold, chloro(triphenylphosphine)-;Chloro(triphenylphosphine)gold;Triphenylphosphine gold chloride complex ((C<sub>6</sub>H<sub>5</sub>)<sub>3</sub>P.AuCl);(Triphenylphosphine)gold chloride;Triphenylphosphineaurous chloride;(Triphenylphosphine)gold(1+) monochloride;SKF 40738;(Triphenylphosphine)gold monochloride;Chloro(triphenylphosphine)gold(I);(Triphenylphosphine)gold(I) chloride;Triphenylphosphinechlorogold;NSC 306388;AuPPh3Cl;PPh<sub>3</sub>AuCl;AuCl(PPh<sub>3</sub>)",
    "duplicated_cas_no": "79384-09-1",
    "SMILES": "[P]([Au+][Cl-])(C1=CC=CC=C1)(C2=CC=CC=C2)C3=CC=CC=C3",
    "meta_data": {
        "InChI": "InChI=1S/C18H15P.Au.ClH/c1-4-10-16(11-5-1)19(17-12-6-2-7-13-17)18-14-8-3-9-15-18;;/h1-15H;;1H/q;+1;/p-1",
        "InChIKey": null,
        "Canonical SMILES": "[Cl-][Au+][P](C=1C=CC=CC1)(C=2C=CC=CC2)C=3C=CC=CC3",
        "Molecular Formula": "C<sub>18</sub>H<sub>15</sub>AuClP",
        "Molecular Mass": "",
        "Melting Point": "236-240 °C"
    }
}