{
    "cas_no": "97-84-7",
    "key_name": "<em>N</em><sup>1</sup>,<em>N</em><sup>1</sup>,<em>N</em><sup>3</sup>,<em>N</em><sup>3</sup>-Tetramethyl-1,3-butanediamine",
    "cn_name": "N,N,N\",N\"-四甲基-1,3-丁二胺;N,N,N\",N\"-四甲基-1,3-二氨基丁烷;",
    "alternate_name": "1,3-Butanediamine, <em>N</em><sup>1</sup>,<em>N</em><sup>1</sup>,<em>N</em><sup>3</sup>,<em>N</em><sup>3</sup>-tetramethyl-;1,3-Butanediamine, <em>N</em>,<em>N</em>,<em>N</em>′,<em>N</em>′-tetramethyl-;<em>N</em><sup>1</sup>,<em>N</em><sup>1</sup>,<em>N</em><sup>3</sup>,<em>N</em><sup>3</sup>-Tetramethyl-1,3-butanediamine;<em>N</em>,<em>N</em>,<em>N</em>′,<em>N</em>′-Tetramethyl-1,3-butanediamine;<em>N</em>,<em>N</em>,<em>N</em>′,<em>N</em>′-Tetramethyl-1,3-diaminobutane;1,3-Bis(dimethylamino)butane;<em>N</em>,<em>N</em>,<em>N</em>′,<em>N</em>′′-Tetramethylbutane-1,3-diamine;Tetramethylbutane-1,3-diamine;<em>N</em>,<em>N</em>,<em>N</em><sup>1</sup>,<em>N</em><sup>1</sup>-Tetramethyl-1,3-diaminobutane;NSC 35411;1-<em>N</em>,1-<em>N</em>,3-<em>N</em>,3-<em>N</em>-Tetramethylbutane-1,3-diamine",
    "duplicated_cas_no": "55637-28-0",
    "SMILES": "C(CCN(C)C)(N(C)C)C",
    "meta_data": {
        "InChI": "InChI=1S/C8H20N2/c1-8(10(4)5)6-7-9(2)3/h8H,6-7H2,1-5H3",
        "InChIKey": null,
        "Canonical SMILES": "N(C)(C)CCC(N(C)C)C",
        "Molecular Formula": "C<sub>8</sub>H<sub>20</sub>N<sub>2</sub>",
        "Molecular Mass": "144.26",
        "Boiling Point": "165 °C @ Press: 760 Torr",
        "Melting Point": "126-127 °C",
        "Density": "0.802 g/cm³"
    }
}