{
    "cas_no": "18618-55-8",
    "key_name": "Cerium trichloride heptahydrate",
    "cn_name": null,
    "alternate_name": "Cerium chloride (CeCl<sub>3</sub>), hydrate (1:7);Cerium chloride (CeCl<sub>3</sub>), heptahydrate;Cerous chloride heptahydrate;Cerium trichloride heptahydrate;Cerium (III) chloride heptahydrate;CeCl<sub>3</sub>.7H<sub>2</sub>O",
    "duplicated_cas_no": "1081802-04-1",
    "SMILES": "[Ce](Cl)(Cl)Cl.O",
    "meta_data": {
        "InChI": "InChI=1S/Ce.3ClH.7H2O/h;3*1H;7*1H2/q+3;;;;;;;;;;/p-3",
        "InChIKey": null,
        "Canonical SMILES": "Cl[Ce](Cl)Cl.O",
        "Molecular Formula": "CeCl<sub>3</sub>.7H<sub>2</sub>O",
        "Molecular Mass": "",
        "Melting Point": "103 °C"
    }
}