{
    "cas_no": "626-17-5",
    "key_name": "Isophthalonitrile",
    "cn_name": "间苯二甲腈;间苯二腈;1,3-二氰基苯;",
    "alternate_name": "1,3-Benzenedicarbonitrile;Isophthalonitrile;1,3-Dicyanobenzene;<em>m</em>-Dicyanobenzene;<em>m</em>-Benzenedinitrile;<em>m</em>-Cyanobenzonitrile;3-Cyanobenzonitrile;1,3-Benzodinitrile;IPN;1,3-Bis(cyano)benzene;Meta-dicyanobenzene;m-Dicyanobenzene;NSC 87880",
    "duplicated_cas_no": "",
    "SMILES": "C(#N)C1=CC(C#N)=CC=C1",
    "meta_data": {
        "InChI": "InChI=1S/C8H4N2/c9-5-7-2-1-3-8(4-7)6-10/h1-4H",
        "InChIKey": null,
        "Canonical SMILES": "N#CC1=CC=CC(C#N)=C1",
        "Molecular Formula": "C<sub>8</sub>H<sub>4</sub>N<sub>2</sub>",
        "Molecular Mass": "128.13",
        "Melting Point": "162 °C"
    }
}