{
    "cas_no": "592-35-8",
    "key_name": "Butyl carbamate",
    "cn_name": "氨基甲酸丁酯;",
    "alternate_name": "Carbamic acid, butyl ester;Butyl carbamate;<em>n</em>-Butyl carbamate;NSC 187",
    "duplicated_cas_no": "",
    "SMILES": "O(CCCC)C(N)=O",
    "meta_data": {
        "InChI": "InChI=1S/C5H11NO2/c1-2-3-4-8-5(6)7/h2-4H2,1H3,(H2,6,7)",
        "InChIKey": null,
        "Canonical SMILES": "O=C(OCCCC)N",
        "Molecular Formula": "C<sub>5</sub>H<sub>11</sub>NO<sub>2</sub>",
        "Molecular Mass": "117.15",
        "Boiling Point": "205-210 °C",
        "Melting Point": "53 °C"
    }
}