{
    "cas_no": "108-65-6",
    "key_name": "1-Methoxy-2-propyl acetate",
    "cn_name": "丙二醇甲醚醋酸酯;",
    "alternate_name": "2-Propanol, 1-methoxy-, 2-acetate;2-Propanol, 1-methoxy-, acetate;2-Acetoxy-1-methoxypropane;1-Methoxy-2-propyl acetate;1-Methoxy-2-acetoxypropane;PGMEA;1-Methoxy-2-propanol acetate;Propylene glycol 1-methyl ether 2-acetate;NSC 2207;KR 20;2-Methoxy-1-methylethyl acetate;PMA;SU 8 Developer;Arcosolv PMA;Dowanol PMA;MMPGAC;JTB 6343-05;1-Methoxypropan-2-yl acetate",
    "duplicated_cas_no": "142300-82-1",
    "SMILES": "O(C(COC)C)C(C)=O",
    "meta_data": {
        "InChI": "InChI=1S/C6H12O3/c1-5(4-8-3)9-6(2)7/h5H,4H2,1-3H3",
        "InChIKey": null,
        "Canonical SMILES": "O=C(OC(C)COC)C",
        "Molecular Formula": "C<sub>6</sub>H<sub>12</sub>O<sub>3</sub>",
        "Molecular Mass": "132.16",
        "Boiling Point": "146 °C",
        "Density": "0.96 g/cm³"
    }
}