{
    "cas_no": "158021-47-7",
    "key_name": "<em>N</em>-[(1<em>S</em>,2<em>S</em>,3<em>R</em>)-1-[(α-<span class=\"text-smallcaps\">D</span>-Galactopyranosyloxy)methyl]-2,3-dihydroxyheptadecyl]hexacosanamide",
    "cn_name": null,
    "alternate_name": "Hexacosanamide, <em>N</em>-[(1<em>S</em>,2<em>S</em>,3<em>R</em>)-1-[(α-<span class=\"text-smallcaps\">D</span>-galactopyranosyloxy)methyl]-2,3-dihydroxyheptadecyl]-;Hexacosanamide, <em>N</em>-[1-[(α-<span class=\"text-smallcaps\">D</span>-galactopyranosyloxy)methyl]-2,3-dihydroxyheptadecyl]-, [1<em>S</em>-(1<em>R</em>*,2<em>R</em>*,3<em>S</em>*)]-;<em>N</em>-[(1<em>S</em>,2<em>S</em>,3<em>R</em>)-1-[(α-<span class=\"text-smallcaps\">D</span>-Galactopyranosyloxy)methyl]-2,3-dihydroxyheptadecyl]hexacosanamide;KRN 7000",
    "duplicated_cas_no": "",
    "SMILES": "O(C[C@@H]([C@@H]([C@@H](CCCCCCCCCCCCCC)O)O)NC(CCCCCCCCCCCCCCCCCCCCCCCCC)=O)[C@H]1O[C@H](CO)[C@H](O)[C@H](O)[C@H]1O",
    "meta_data": {
        "InChI": "InChI=1S/C50H99NO9/c1-3-5-7-9-11-13-15-17-18-19-20-21-22-23-24-25-26-27-29-31-33-35-37-39-45(54)51-42(41-59-50-49(58)48(57)47(56)44(40-52)60-50)46(55)43(53)38-36-34-32-30-28-16-14-12-10-8-6-4-2/h42-44,46-50,52-53,55-58H,3-41H2,1-2H3,(H,51,54)/t42-,43+,44+,46-,47-,48-,49+,50-/m0/s1",
        "InChIKey": null,
        "Canonical SMILES": "O=C(NC(COC1OC(CO)C(O)C(O)C1O)C(O)C(O)CCCCCCCCCCCCCC)CCCCCCCCCCCCCCCCCCCCCCCCC",
        "Molecular Formula": "C<sub>50</sub>H<sub>99</sub>NO<sub>9</sub>",
        "Molecular Mass": "858.32",
        "Melting Point": "190 °C"
    }
}