{
    "cas_no": "50-01-1",
    "key_name": "Guanidine hydrochloride",
    "cn_name": "盐酸胍;",
    "alternate_name": "Guanidine, hydrochloride (1:1);Guanidine, monohydrochloride;Guanidinium chloride;Guanidine chloride;Guanidinium hydrochloride;Guanidine hydrochloride;Buffer AL",
    "duplicated_cas_no": "420-13-3;14317-32-9;15827-40-4;87667-20-7;94369-44-5;106946-18-3;139693-44-0;143504-22-7;915070-50-7;1340579-42-1",
    "SMILES": "C(=N)(N)N.Cl",
    "meta_data": {
        "InChI": "InChI=1S/CH5N3.ClH/c2-1(3)4;/h(H5,2,3,4);1H",
        "InChIKey": null,
        "Canonical SMILES": "Cl.N=C(N)N",
        "Molecular Formula": "CH<sub>5</sub>N<sub>3</sub>.ClH",
        "Molecular Mass": "",
        "Melting Point": "178 °C",
        "Density": "1.3 g/cm³"
    }
}