{
    "cas_no": "693-98-1",
    "key_name": "2-Methylimidazole",
    "cn_name": "2-甲基咪唑;",
    "alternate_name": "1<em>H</em>-Imidazole, 2-methyl-;Imidazole, 2-methyl-;2-Methyl-1<em>H</em>-imidazole;2-Methylimidazole;Curezol 2MZ;2MZ;Denka CN 25;Actiron 2MI;NSC 21394;1<em>H</em>-2-Methylimidazole;Curezol 2MZ-P;Epicure MI 2;Epikure MI 2;Imicure AMI 2;2MZ-H;2MZ-PW;Dyhard MI-FF;2MI;Curezol 2MZ-H;MI 2;Synthro-ACTIRON 2MI20P",
    "duplicated_cas_no": "112288-03-6;79103-58-5;156107-73-2",
    "SMILES": "CC=1NC=CN1",
    "meta_data": {
        "InChI": "InChI=1S/C4H6N2/c1-4-5-2-3-6-4/h2-3H,1H3,(H,5,6)",
        "InChIKey": null,
        "Canonical SMILES": "N=1C=CNC1C",
        "Molecular Formula": "C<sub>4</sub>H<sub>6</sub>N<sub>2</sub>",
        "Molecular Mass": "82.10",
        "Boiling Point": "267 °C",
        "Melting Point": "144 °C",
        "Density": "1.06 g/cm³"
    }
}