{
    "cas_no": "5396-89-4",
    "key_name": "Benzyl acetoacetate",
    "cn_name": "乙酰乙酸苄酯;",
    "alternate_name": "Butanoic acid, 3-oxo-, phenylmethyl ester;Acetoacetic acid, benzyl ester;Benzyl acetoacetate;Benzyl acetylacetate;Benzyl 3-oxobutanoate;Phenylmethyl 3-oxobutanoate;3-Oxobutanoic acid phenylmethyl ester;NSC 4391;3-Oxobutanoic acid benzyl ester;Benzyl 3-oxobutyrate;3-Oxobutyric acid benzyl ester",
    "duplicated_cas_no": "1629358-35-5",
    "SMILES": "C(OC(CC(C)=O)=O)C1=CC=CC=C1",
    "meta_data": {
        "InChI": "InChI=1S/C11H12O3/c1-9(12)7-11(13)14-8-10-5-3-2-4-6-10/h2-6H,7-8H2,1H3",
        "InChIKey": null,
        "Canonical SMILES": "O=C(OCC=1C=CC=CC1)CC(=O)C",
        "Molecular Formula": "C<sub>11</sub>H<sub>12</sub>O<sub>3</sub>",
        "Molecular Mass": "192.21",
        "Boiling Point": "97 °C @ Press: 12 Torr"
    }
}