{
    "cas_no": "2927-71-1",
    "key_name": "2,4-Dichloro-5-fluoropyrimidine",
    "cn_name": "2,4-二氯-5-氟嘧啶;5-氟-2,4-二氯嘧啶;",
    "alternate_name": "Pyrimidine, 2,4-dichloro-5-fluoro-;2,4-Dichloro-5-fluoropyrimidine;NSC 70442;5-Fluoro-2,4-dichloropyrimidine;2,6-Dichloro-5-fluoropyrimidine",
    "duplicated_cas_no": "",
    "SMILES": "ClC=1C(F)=CN=C(Cl)N1",
    "meta_data": {
        "InChI": "InChI=1S/C4HCl2FN2/c5-3-2(7)1-8-4(6)9-3/h1H",
        "InChIKey": null,
        "Canonical SMILES": "FC1=CN=C(Cl)N=C1Cl",
        "Molecular Formula": "C<sub>4</sub>HCl<sub>2</sub>FN<sub>2</sub>",
        "Molecular Mass": "166.97",
        "Boiling Point": "74-80 °C @ Press: 16 Torr",
        "Melting Point": "38-39 °C"
    }
}