{
    "cas_no": "63837-11-6",
    "key_name": "5-Bromo-2-methylbenzothiazole",
    "cn_name": "5-溴-2-甲基苯并噻唑;",
    "alternate_name": "Benzothiazole, 5-bromo-2-methyl-;5-Bromo-2-methylbenzothiazole;2-Methyl-5-bromobenzothiazole;5-Bromo-2-methyl-1,3-benzothiazole;5-Bromo-2-methylbenzo[<em>d</em>]thiazole",
    "duplicated_cas_no": "",
    "SMILES": "CC=1SC=2C(N1)=CC(Br)=CC2",
    "meta_data": {
        "InChI": "InChI=1S/C8H6BrNS/c1-5-10-7-4-6(9)2-3-8(7)11-5/h2-4H,1H3",
        "InChIKey": null,
        "Canonical SMILES": "BrC=1C=CC=2SC(=NC2C1)C",
        "Molecular Formula": "C<sub>8</sub>H<sub>6</sub>BrNS",
        "Molecular Mass": "228.11",
        "Melting Point": "77.8-78.4 °C"
    }
}