{
    "cas_no": "1119-51-3",
    "key_name": "5-Bromo-1-pentene",
    "cn_name": "5-溴-1-戊烯;",
    "alternate_name": "1-Pentene, 5-bromo-;5-Bromo-1-pentene;1-Bromo-4-pentene;4-Pentenyl bromide",
    "duplicated_cas_no": "",
    "SMILES": "C(CC=C)CBr",
    "meta_data": {
        "InChI": "InChI=1S/C5H9Br/c1-2-3-4-5-6/h2H,1,3-5H2",
        "InChIKey": null,
        "Canonical SMILES": "BrCCCC=C",
        "Molecular Formula": "C<sub>5</sub>H<sub>9</sub>Br",
        "Molecular Mass": "149.03",
        "Boiling Point": "125.5 °C",
        "Density": "1.2581 g/cm³ @ Temp: 20 °C"
    }
}