{
    "cas_no": "723-89-7",
    "key_name": "1-Phenylisatin",
    "cn_name": "1-苯基靛红;1-苯基靛红,98%;1-苯基靛红;",
    "alternate_name": "1<em>H</em>-Indole-2,3-dione, 1-phenyl-;Indole-2,3-dione, 1-phenyl-;Isatin, 1-phenyl-;1-Phenyl-1<em>H</em>-indole-2,3-dione;1-Phenylisatin;<em>N</em>-Phenylisatin;NSC 100013;1-Phenyl-2,3-indolinedione;1-Phenylindole-2,3-dione;1-Phenyl-2,3-dihydro-1<em>H</em>-indole-2,3-dione",
    "duplicated_cas_no": "",
    "SMILES": "O=C1N(C=2C(C1=O)=CC=CC2)C3=CC=CC=C3",
    "meta_data": {
        "InChI": "InChI=1S/C14H9NO2/c16-13-11-8-4-5-9-12(11)15(14(13)17)10-6-2-1-3-7-10/h1-9H",
        "InChIKey": null,
        "Canonical SMILES": "O=C1C(=O)N(C=2C=CC=CC2)C=3C=CC=CC13",
        "Molecular Formula": "C<sub>14</sub>H<sub>9</sub>NO<sub>2</sub>",
        "Molecular Mass": "223.23",
        "Melting Point": "138 °C"
    }
}