{
    "cas_no": "872-05-9",
    "key_name": "1-Decene",
    "cn_name": "正癸烯;1-癸烯;",
    "alternate_name": "1-Decene;<em>n</em>-1-Decene;α-Decene;1-<em>n</em>-Decene;Gulftene 10;Dialen 10;Neodene 10;NSC 62122;Linealene 10",
    "duplicated_cas_no": "",
    "SMILES": "C(CCCC=C)CCCC",
    "meta_data": {
        "InChI": "InChI=1S/C10H20/c1-3-5-7-9-10-8-6-4-2/h3H,1,4-10H2,2H3",
        "InChIKey": null,
        "Canonical SMILES": "C=CCCCCCCCC",
        "Molecular Formula": "C<sub>10</sub>H<sub>20</sub>",
        "Molecular Mass": "140.27",
        "Boiling Point": "170.56 °C @ Press: 760 Torr",
        "Melting Point": "-66.3 °C",
        "Density": "0.7408 g/cm³ @ Temp: 20 °C"
    }
}