{
    "cas_no": "76578-14-8",
    "key_name": "Quizalofop-ethyl",
    "cn_name": null,
    "alternate_name": "Propanoic acid, 2-[4-[(6-chloro-2-quinoxalinyl)oxy]phenoxy]-, ethyl ester;Ethyl 2-[4-(6-chloro-2-quinoxalyloxy)phenoxy]propionate;DPX-Y 6202;NCI 96683;Quinofop-ethyl;Targa;NC 302;Quizalofop-ethyl;Assure;Xylofop-ethyl;DPX 6202;DPX-Y 6202-3;Miura",
    "duplicated_cas_no": "100760-10-9;89468-49-5",
    "SMILES": "O(C1=NC2=C(N=C1)C=C(Cl)C=C2)C3=CC=C(OC(C(OCC)=O)C)C=C3",
    "meta_data": {
        "InChI": "InChI=1S/C19H17ClN2O4/c1-3-24-19(23)12(2)25-14-5-7-15(8-6-14)26-18-11-21-17-10-13(20)4-9-16(17)22-18/h4-12H,3H2,1-2H3",
        "InChIKey": null,
        "Canonical SMILES": "O=C(OCC)C(OC1=CC=C(OC2=NC3=CC=C(Cl)C=C3N=C2)C=C1)C",
        "Molecular Formula": "C<sub>19</sub>H<sub>17</sub>ClN<sub>2</sub>O<sub>4</sub>",
        "Molecular Mass": "372.80",
        "Boiling Point": "220 °C @ Press: 0.2 Torr",
        "Melting Point": "91.7-92.1 °C",
        "Density": "1.35 g/cm³ @ Temp: 20 °C"
    }
}