{
    "cas_no": "1038-66-0",
    "key_name": "4,4′-Diaminooctafluorobiphenyl",
    "cn_name": "4,4\"-二氨基八氟联苯;",
    "alternate_name": "[1,1′-Biphenyl]-4,4′-diamine, 2,2′,3,3′,5,5′,6,6′-octafluoro-;Benzidine, 2,2′,3,3′,5,5′,6,6′-octafluoro-;2,2′,3,3′,5,5′,6,6′-Octafluoro[1,1′-biphenyl]-4,4′-diamine;Octafluorobenzidine;2,2′,3,3′,5,5′,6,6′-Octafluorobenzidine;4,4′-Diaminooctafluorodiphenyl;4,4′-Diaminooctafluorobiphenyl;NSC 88339;Octafluoro-4,4′-biphenylenediamine;4,4′-Diamino-2,2′,3,3′,5,5′,6,6′-octafluoro-1,1′-biphenyl;D 1632",
    "duplicated_cas_no": "",
    "SMILES": "FC1=C(C(F)=C(F)C(N)=C1F)C2=C(F)C(F)=C(N)C(F)=C2F",
    "meta_data": {
        "InChI": "InChI=1S/C12H4F8N2/c13-3-1(4(14)8(18)11(21)7(3)17)2-5(15)9(19)12(22)10(20)6(2)16/h21-22H2",
        "InChIKey": null,
        "Canonical SMILES": "FC1=C(F)C(=C(F)C(F)=C1N)C2=C(F)C(F)=C(N)C(F)=C2F",
        "Molecular Formula": "C<sub>12</sub>H<sub>4</sub>F<sub>8</sub>N<sub>2</sub>",
        "Molecular Mass": "328.16",
        "Melting Point": "173-174 °C"
    }
}