{
    "cas_no": "526-55-6",
    "key_name": "Tryptophol",
    "cn_name": "色醇;3-(2-羟乙基)吲哚;吲哚-3-乙醇;",
    "alternate_name": "1<em>H</em>-Indole-3-ethanol;Indole-3-ethanol;Tryptophol;3-(2-Hydroxyethyl)indole;IEA;β-(3-Indole)ethanol;2-(3-Indolyl)ethanol;3-(β-Hydroxyethyl)indole;3-(2-Hydroxyethyl)-1<em>H</em>-indole;NSC 3884;2-(1<em>H</em>-Indol-3-yl)ethanol;2-(1<em>H</em>-Indol-3-yl)ethan-1-ol",
    "duplicated_cas_no": "",
    "SMILES": "C(CO)C=1C=2C(NC1)=CC=CC2",
    "meta_data": {
        "InChI": "InChI=1S/C10H11NO/c12-6-5-8-7-11-10-4-2-1-3-9(8)10/h1-4,7,11-12H,5-6H2",
        "InChIKey": null,
        "Canonical SMILES": "OCCC1=CNC=2C=CC=CC21",
        "Molecular Formula": "C<sub>10</sub>H<sub>11</sub>NO",
        "Molecular Mass": "161.20",
        "Boiling Point": "174 °C @ Press: 2 Torr",
        "Melting Point": "59 °C"
    }
}