{
    "cas_no": "1862-88-0",
    "key_name": "2-Hydroxy-<em>N</em>-methylbenzamide",
    "cn_name": null,
    "alternate_name": "Benzamide, 2-hydroxy-<em>N</em>-methyl-;Salicylamide, <em>N</em>-methyl-;2-Hydroxy-<em>N</em>-methylbenzamide;<em>N</em>-Methylsalicylamide;<em>N</em>-Methyl-<em>o</em>-hydroxybenzamide;<em>N</em>-Methyl-2-hydroxybenzamide;NSC 522443",
    "duplicated_cas_no": "",
    "SMILES": "C(NC)(=O)C1=C(O)C=CC=C1",
    "meta_data": {
        "InChI": "InChI=1S/C8H9NO2/c1-9-8(11)6-4-2-3-5-7(6)10/h2-5,10H,1H3,(H,9,11)",
        "InChIKey": null,
        "Canonical SMILES": "O=C(NC)C=1C=CC=CC1O",
        "Molecular Formula": "C<sub>8</sub>H<sub>9</sub>NO<sub>2</sub>",
        "Molecular Mass": "151.16",
        "Melting Point": "89 °C"
    }
}