{
    "cas_no": "1452-77-3",
    "key_name": "2-Pyridinecarboxamide",
    "cn_name": "2-吡啶甲酰胺;",
    "alternate_name": "2-Pyridinecarboxamide;Picolinamide;α-Picolinic acid amide;α-Pyridinecarboxamide;Picolinoylamide;2-Carbamoylpyridine;Picolinic acid amide;α-(Aminocarbonyl)pyridine;α-Picolinamide;NSC 524473;Pyridine-2-carboxamide",
    "duplicated_cas_no": "39194-75-7",
    "SMILES": "C(N)(=O)C1=CC=CC=N1",
    "meta_data": {
        "InChI": "InChI=1S/C6H6N2O/c7-6(9)5-3-1-2-4-8-5/h1-4H,(H2,7,9)",
        "InChIKey": null,
        "Canonical SMILES": "O=C(N)C1=NC=CC=C1",
        "Molecular Formula": "C<sub>6</sub>H<sub>6</sub>N<sub>2</sub>O",
        "Molecular Mass": "122.12",
        "Boiling Point": "143 °C",
        "Melting Point": "110 °C (decomp)"
    }
}