{
    "cas_no": "7200-25-1",
    "key_name": "(±)-Arginine",
    "cn_name": null,
    "alternate_name": "Arginine;Arginine, <span class=\"text-smallcaps\">D</smallcap><smallcap>L</span>-;<span class=\"text-smallcaps\">D</smallcap><smallcap>L</span>-Arginine;(±)-Arginine;2-Amino-5-(carbamimidamido)pentanoic acid;2-Amino-5-guanidinopentanoic acid;2-Amino-5-(diaminomethylideneazaniumyl)pentanoate;2-Amino-5-[(diaminomethylidene)amino]pentanoic acid",
    "duplicated_cas_no": "",
    "SMILES": "C(CCNC(=N)N)C(C(O)=O)N",
    "meta_data": {
        "InChI": "InChI=1S/C6H14N4O2/c7-4(5(11)12)2-1-3-10-6(8)9/h4H,1-3,7H2,(H,11,12)(H4,8,9,10)",
        "InChIKey": null,
        "Canonical SMILES": "O=C(O)C(N)CCCNC(=N)N",
        "Molecular Formula": "C<sub>6</sub>H<sub>14</sub>N<sub>4</sub>O<sub>2</sub>",
        "Molecular Mass": "174.20",
        "Melting Point": "217 °C (decomp)"
    }
}