{
    "cas_no": "104934-51-2",
    "key_name": "Poly(3-octylthiophene)",
    "cn_name": null,
    "alternate_name": "Thiophene, 3-octyl-, homopolymer;Poly(3-octylthiophene);3-Octylthiophene homopolymer;Poly(3-octyl-2,5-thiophene);Poly(3-<em>n</em>-octylthiophene)",
    "duplicated_cas_no": "",
    "SMILES": "C(CCCCCCC)C=1C=CSC1",
    "meta_data": {
        "InChI": "InChI=1S/C12H20S/c1-2-3-4-5-6-7-8-12-9-10-13-11-12/h9-11H,2-8H2,1H3",
        "InChIKey": null,
        "Canonical SMILES": "S1C=CC(=C1)CCCCCCCC",
        "Molecular Formula": "(C<sub>12</sub>H<sub>20</sub>S)<sub>x</sub>",
        "Molecular Mass": "",
        "Melting Point": "162 °C"
    }
}