{
    "cas_no": "179688-27-8",
    "key_name": "Benzoic acid, 2-amino-4,5-bis(2-methoxyethoxy)-, ethyl ester",
    "cn_name": "4,5-二(2-甲氧基乙氧基)-2-氨基苯甲酸乙酯;",
    "alternate_name": "Benzoic acid, 2-amino-4,5-bis(2-methoxyethoxy)-, ethyl ester;Ethyl 2-amino-4,5-bis(2-methoxyethoxy)benzoate;4,5-Bis(2-methoxyethoxy)anthranilic acid ethyl ester;2-Amino-4,5-bis(2-methoxyethoxy)benzoic acid ethyl ester;Ethyl 4,5-bis-(2-methoxyethoxy)-2-aminobenzoate",
    "duplicated_cas_no": "",
    "SMILES": "O(CCOC)C1=C(OCCOC)C=C(N)C(C(OCC)=O)=C1",
    "meta_data": {
        "InChI": "InChI=1S/C15H23NO6/c1-4-20-15(17)11-9-13(21-7-5-18-2)14(10-12(11)16)22-8-6-19-3/h9-10H,4-8,16H2,1-3H3",
        "InChIKey": null,
        "Canonical SMILES": "O=C(OCC)C1=CC(OCCOC)=C(OCCOC)C=C1N",
        "Molecular Formula": "C<sub>15</sub>H<sub>23</sub>NO<sub>6</sub>",
        "Molecular Mass": "313.35",
        "Melting Point": "61-63 °C"
    }
}