{
    "cas_no": "24158-88-1",
    "key_name": "(2<em>S</em>,5<em>R</em>)-6,6-Dibromo-3,3-dimethyl-7-oxo-4-thia-1-azabicyclo[3.2.0]heptane-2-carboxylic acid",
    "cn_name": null,
    "alternate_name": "4-Thia-1-azabicyclo[3.2.0]heptane-2-carboxylic acid, 6,6-dibromo-3,3-dimethyl-7-oxo-, (2<em>S</em>,5<em>R</em>)-;4-Thia-1-azabicyclo[3.2.0]heptane-2-carboxylic acid, 6,6-dibromo-3,3-dimethyl-7-oxo-, (2<em>S</em>-<em>cis</em>)-;(2<em>S</em>,5<em>R</em>)-6,6-Dibromo-3,3-dimethyl-7-oxo-4-thia-1-azabicyclo[3.2.0]heptane-2-carboxylic acid;6,6-Dibromopenicillanic acid",
    "duplicated_cas_no": "",
    "SMILES": "C(O)(=O)[C@@H]1N2[C@@](C(Br)(Br)C2=O)(SC1(C)C)[H]",
    "meta_data": {
        "InChI": "InChI=1S/C8H9Br2NO3S/c1-7(2)3(4(12)13)11-5(14)8(9,10)6(11)15-7/h3,6H,1-2H3,(H,12,13)/t3-,6+/m0/s1",
        "InChIKey": null,
        "Canonical SMILES": "O=C(O)C1N2C(=O)C(Br)(Br)C2SC1(C)C",
        "Molecular Formula": "C<sub>8</sub>H<sub>9</sub>Br<sub>2</sub>NO<sub>3</sub>S",
        "Molecular Mass": "359.04",
        "Melting Point": "142-145 °C"
    }
}