{
    "cas_no": "3213-30-7",
    "key_name": "4-<em>O</em>-Methyldopamine",
    "cn_name": null,
    "alternate_name": "Phenol, 5-(2-aminoethyl)-2-methoxy-;Guaiacol, 5-(2-aminoethyl)-;5-(2-Aminoethyl)-2-methoxyphenol;3-Hydroxy-4-methoxyphenethylamine;<em>p</em>-Methoxydopamine;3-Hydroxy-4-methoxyphenylethylamine;4-Methoxy-3-hydroxyphenylethylamine;4-Methoxy-<em>m</em>-tyramine;4-<em>O</em>-Methyldopamine;4-Methoxy-3-hydroxyphenethylamine;2-(3-Hydroxy-4-methoxyphenyl)ethylamine;4-Methoxydopamine;5-(2-Aminoethyl)-2-(methyloxy)phenol",
    "duplicated_cas_no": "",
    "SMILES": "C(CN)C1=CC(O)=C(OC)C=C1",
    "meta_data": {
        "InChI": "InChI=1S/C9H13NO2/c1-12-9-3-2-7(4-5-10)6-8(9)11/h2-3,6,11H,4-5,10H2,1H3",
        "InChIKey": null,
        "Canonical SMILES": "OC1=CC(=CC=C1OC)CCN",
        "Molecular Formula": "C<sub>9</sub>H<sub>13</sub>NO<sub>2</sub>",
        "Molecular Mass": "167.21",
        "Melting Point": "151-153 °C"
    }
}