{
    "cas_no": "94-89-3",
    "key_name": "3-[(2-Chlorophenyl)amino]propanenitrile",
    "cn_name": "3-[(2-氯苯基)氨基]丙腈;N-(beta-氰乙基)邻氯苯胺;",
    "alternate_name": "Propanenitrile, 3-[(2-chlorophenyl)amino]-;Propionitrile, 3-(<em>o</em>-chloroanilino)-;3-[(2-Chlorophenyl)amino]propanenitrile;3-(<em>o</em>-Chloranilino)propionitrile;3-(2-Chlorophenylamino)propanenitrile",
    "duplicated_cas_no": "",
    "SMILES": "N(CCC#N)C1=C(Cl)C=CC=C1",
    "meta_data": {
        "InChI": "InChI=1S/C9H9ClN2/c10-8-4-1-2-5-9(8)12-7-3-6-11/h1-2,4-5,12H,3,7H2",
        "InChIKey": null,
        "Canonical SMILES": "N#CCCNC=1C=CC=CC1Cl",
        "Molecular Formula": "C<sub>9</sub>H<sub>9</sub>ClN<sub>2</sub>",
        "Molecular Mass": "180.63",
        "Boiling Point": "139-141 °C @ Press: 0.3 Torr"
    }
}