{
    "cas_no": "2386-57-4",
    "key_name": "Sodium methanesulfonate",
    "cn_name": "甲基磺酸钠;甲烷磺酸钠;",
    "alternate_name": "Methanesulfonic acid, sodium salt (1:1);Methanesulfonic acid, sodium salt;Sodium methanesulfonate;Sodium methylsulfonate;Sodium mesylate",
    "duplicated_cas_no": "163883-52-1;1092727-38-2",
    "SMILES": "S(C)(=O)(=O)O.[Na]",
    "meta_data": {
        "InChI": "InChI=1S/CH4O3S.Na/c1-5(2,3)4;/h1H3,(H,2,3,4);",
        "InChIKey": null,
        "Canonical SMILES": "[Na].O=S(=O)(O)C",
        "Molecular Formula": "CH<sub>4</sub>O<sub>3</sub>S.Na",
        "Molecular Mass": "",
        "Melting Point": "345 °C"
    }
}