{
    "cas_no": "689-31-6",
    "key_name": "β-Ketoadipic acid",
    "cn_name": "3-氧代己二酸;",
    "alternate_name": "Hexanedioic acid, 3-oxo-;3-Oxohexanedioic acid;β-Ketoadipic acid;β-Oxoadipic acid;3-Oxoadipic acid;3-Ketoadipic acid;NSC 18511",
    "duplicated_cas_no": "",
    "SMILES": "C(CCC(O)=O)(CC(O)=O)=O",
    "meta_data": {
        "InChI": "InChI=1S/C6H8O5/c7-4(3-6(10)11)1-2-5(8)9/h1-3H2,(H,8,9)(H,10,11)",
        "InChIKey": null,
        "Canonical SMILES": "O=C(O)CC(=O)CCC(=O)O",
        "Molecular Formula": "C<sub>6</sub>H<sub>8</sub>O<sub>5</sub>",
        "Molecular Mass": "160.12",
        "Melting Point": "124-125 °C"
    }
}