{
    "cas_no": "6976-91-6",
    "key_name": "Dimethylmethacrylamide",
    "cn_name": null,
    "alternate_name": "2-Propenamide, <em>N</em>,<em>N</em>,2-trimethyl-;Acrylamide, <em>N</em>,<em>N</em>,2-trimethyl-;<em>N</em>,<em>N</em>,2-Trimethyl-2-propenamide;<em>N</em>,<em>N</em>-Dimethylmethacrylamide;NSC 24154;Dimethylmethacrylamide",
    "duplicated_cas_no": "57950-64-8",
    "SMILES": "C(C(C)=C)(N(C)C)=O",
    "meta_data": {
        "InChI": "InChI=1S/C6H11NO/c1-5(2)6(8)7(3)4/h1H2,2-4H3",
        "InChIKey": null,
        "Canonical SMILES": "O=C(C(=C)C)N(C)C",
        "Molecular Formula": "C<sub>6</sub>H<sub>11</sub>NO",
        "Molecular Mass": "113.16",
        "Boiling Point": "66-67 °C @ Press: 10 Torr",
        "Density": "0.9272 g/cm³ @ Temp: 20 °C"
    }
}