{
    "cas_no": "4062-60-6",
    "key_name": "<em>N</em>,<em>N</em>′-Di-<em>tert</em>-butylethylenediamine",
    "cn_name": "N,N\"-二叔丁基乙二胺;1,2-双(叔丁氨基)乙烷;",
    "alternate_name": "1,2-Ethanediamine, <em>N</em><sup>1</sup>,<em>N</em><sup>2</sup>-bis(1,1-dimethylethyl)-;Ethylenediamine, <em>N</em>,<em>N</em>′-di-<em>tert</em>-butyl-;1,2-Ethanediamine, <em>N</em>,<em>N</em>′-bis(1,1-dimethylethyl)-;<em>N</em><sup>1</sup>,<em>N</em><sup>2</sup>-Bis(1,1-dimethylethyl)-1,2-ethanediamine;<em>N</em>,<em>N</em>′-Di-<em>tert</em>-butylethylenediamine;<em>N</em>,<em>N</em>′-Bis(<em>tert</em>-butyl)ethylenediamine;1,2-Bis(<em>tert</em>-butylamino)ethane;<em>N</em>,<em>N</em>′-Di-<em>tert</em>-butyl-1,2-ethylenediamine;<em>N</em>,<em>N</em>′-Di-<em>tert</em>-butyl-1,4-diazabutane;<em>N</em>,<em>N</em>′-Di-<em>tert</em>-butyl-1,2-ethanediamine;Amine SDA 172;1,2-Ethanediamine N1,N2-bis(1,1-dimethylethyl)-;<em>N</em>,<em>N</em>-<em>tert</em>-Butylethylenediamine",
    "duplicated_cas_no": "",
    "SMILES": "N(C(C)(C)C)CCNC(C)(C)C",
    "meta_data": {
        "InChI": "InChI=1S/C10H24N2/c1-9(2,3)11-7-8-12-10(4,5)6/h11-12H,7-8H2,1-6H3",
        "InChIKey": null,
        "Canonical SMILES": "N(CCNC(C)(C)C)C(C)(C)C",
        "Molecular Formula": "C<sub>10</sub>H<sub>24</sub>N<sub>2</sub>",
        "Molecular Mass": "172.31",
        "Boiling Point": "196-198 °C",
        "Melting Point": "53 °C"
    }
}