{
    "cas_no": "3562-84-3",
    "key_name": "Benzbromarone",
    "cn_name": "苯溴马隆;痛风利仙;溴吩呋酮;",
    "alternate_name": "Methanone, (3,5-dibromo-4-hydroxyphenyl)(2-ethyl-3-benzofuranyl)-;Ketone, 3,5-dibromo-4-hydroxyphenyl 2-ethyl-3-benzofuranyl;(3,5-Dibromo-4-hydroxyphenyl)(2-ethyl-3-benzofuranyl)methanone;Benzbromarone;3,5-Dibromo-4-hydroxyphenyl 2-ethyl-3-benzofuranyl ketone;2-Ethyl-3-(3,5-dibromo-4-hydroxybenzoyl)benzofuran;L 2214;Benzbromaron;Minuric;Uricovac;Desuric;L 2214-Labaz;Normurat;Azubromaron;Max-Uric;Besuric;MJ 10061;Urinorm;Narcaricin;NSC 85433;(3,5-Dibromo-4-hydroxyphenyl)(2-ethylbenzofuran-3-yl)methanone;(3,5-Dibromo-4-hydroxyphenyl)-(2-ethyl-1-benzofuran-3-yl)methanone;MeSH ID: D001553",
    "duplicated_cas_no": "",
    "SMILES": "C(=O)(C=1C=2C(OC1CC)=CC=CC2)C3=CC(Br)=C(O)C(Br)=C3",
    "meta_data": {
        "InChI": "InChI=1S/C17H12Br2O3/c1-2-13-15(10-5-3-4-6-14(10)22-13)16(20)9-7-11(18)17(21)12(19)8-9/h3-8,21H,2H2,1H3",
        "InChIKey": null,
        "Canonical SMILES": "O=C(C1=CC(Br)=C(O)C(Br)=C1)C=2C=3C=CC=CC3OC2CC",
        "Molecular Formula": "C<sub>17</sub>H<sub>12</sub>Br<sub>2</sub>O<sub>3</sub>",
        "Molecular Mass": "424.08",
        "Melting Point": "151 °C"
    }
}