{
    "cas_no": "20012-63-9",
    "key_name": "2-Benzyloxyaniline",
    "cn_name": "2-苄氧基苯胺;",
    "alternate_name": "Benzenamine, 2-(phenylmethoxy)-;Aniline, <em>o</em>-(benzyloxy)-;2-(Phenylmethoxy)benzenamine;2-Aminophenyl benzyl ether;<em>o</em>-(Benzyloxy)aniline;<em>o</em>-Aminophenyl benzyl ether;<em>O</em>-Benzyl-<em>o</em>-aminophenol;2-Benzyloxyaniline;2-(Benzyloxy)phenylamine;NSC 46882;2-(Benzyloxy)benzenamine;2-Phenylmethoxyaniline;2-(Benzyloxy)aniline",
    "duplicated_cas_no": "",
    "SMILES": "O(CC1=CC=CC=C1)C2=C(N)C=CC=C2",
    "meta_data": {
        "InChI": "InChI=1S/C13H13NO/c14-12-8-4-5-9-13(12)15-10-11-6-2-1-3-7-11/h1-9H,10,14H2",
        "InChIKey": null,
        "Canonical SMILES": "O(C=1C=CC=CC1N)CC=2C=CC=CC2",
        "Molecular Formula": "C<sub>13</sub>H<sub>13</sub>NO",
        "Molecular Mass": "199.25",
        "Boiling Point": "186-187 °C @ Press: 13 Torr",
        "Melting Point": "39-40 °C"
    }
}