{
    "cas_no": "5870-68-8",
    "key_name": "Ethyl 3-methylpentanoate",
    "cn_name": "3-甲基戊酸乙酯;",
    "alternate_name": "Pentanoic acid, 3-methyl-, ethyl ester;Valeric acid, 3-methyl-, ethyl ester;Ethyl 3-methylpentanoate;Ethyl β-methylvalerate;Ethyl 3-methylvalerate;3-Methylvaleric acid ethyl ester",
    "duplicated_cas_no": "",
    "SMILES": "C(C(OCC)=O)C(CC)C",
    "meta_data": {
        "InChI": "InChI=1S/C8H16O2/c1-4-7(3)6-8(9)10-5-2/h7H,4-6H2,1-3H3",
        "InChIKey": null,
        "Canonical SMILES": "O=C(OCC)CC(C)CC",
        "Molecular Formula": "C<sub>8</sub>H<sub>16</sub>O<sub>2</sub>",
        "Molecular Mass": "144.21",
        "Boiling Point": "158.5-159 °C @ Press: 756 Torr",
        "Density": "0.863 g/cm³ @ Temp: 20 °C"
    }
}