{
    "cas_no": "10138-59-7",
    "key_name": "1,2-Diethyl 1,2-cyclohexanedicarboxylate",
    "cn_name": "1,2-环己烷二甲酸二乙酯;",
    "alternate_name": "1,2-Cyclohexanedicarboxylic acid, 1,2-diethyl ester;1,2-Cyclohexanedicarboxylic acid, diethyl ester;1,2-Diethyl 1,2-cyclohexanedicarboxylate;Diethyl hexahydrophthalate;Diethyl cyclohexane-1,2-dicarboxylate;NSC 408342",
    "duplicated_cas_no": "",
    "SMILES": "C(OCC)(=O)C1C(C(OCC)=O)CCCC1",
    "meta_data": {
        "InChI": "InChI=1S/C12H20O4/c1-3-15-11(13)9-7-5-6-8-10(9)12(14)16-4-2/h9-10H,3-8H2,1-2H3",
        "InChIKey": null,
        "Canonical SMILES": "O=C(OCC)C1CCCCC1C(=O)OCC",
        "Molecular Formula": "C<sub>12</sub>H<sub>20</sub>O<sub>4</sub>",
        "Molecular Mass": "228.28",
        "Boiling Point": "134-136 °C @ Press: 11 Torr",
        "Density": "1.0564 g/cm³ @ Temp: 20 °C"
    }
}