{
    "cas_no": "163119-16-2",
    "key_name": "2,6-Bis(1,1-dimethylethyl)-4-methylcyclohexanol",
    "cn_name": "2,6-二叔丁基-4-甲基环己醇;",
    "alternate_name": "Cyclohexanol, 2,6-bis(1,1-dimethylethyl)-4-methyl-;2,6-Bis(1,1-dimethylethyl)-4-methylcyclohexanol;2,6-Di-<em>tert</em>-butyl-4-methylcyclohexanol;2,6-Di-<em>tert</em>-butyl-4-methylcyclohexan-1-ol;2,6-Ditert-butyl-4-methylcyclohexan-1-ol;2,6-Bis-<em>tert</em>-butyl-4-methylcyclohexanol",
    "duplicated_cas_no": "",
    "SMILES": "C(C)(C)(C)C1C(O)C(C(C)(C)C)CC(C)C1",
    "meta_data": {
        "InChI": "InChI=1S/C15H30O/c1-10-8-11(14(2,3)4)13(16)12(9-10)15(5,6)7/h10-13,16H,8-9H2,1-7H3",
        "InChIKey": null,
        "Canonical SMILES": "OC1C(CC(C)CC1C(C)(C)C)C(C)(C)C",
        "Molecular Formula": "C<sub>15</sub>H<sub>30</sub>O",
        "Molecular Mass": "226.40",
        "Boiling Point": "135-140 °C @ Press: 14 Torr"
    }
}