{
    "cas_no": "608-80-0",
    "key_name": "Hexahydroxybenzene",
    "cn_name": "六羟基苯;六羟基苯;苯六酚;",
    "alternate_name": "1,2,3,4,5,6-Benzenehexol;Benzenehexol;Benzene, hexahydroxy-;Hexahydroxybenzene;NSC 528169;1,2,3,4,5,6-Benzenehexaol",
    "duplicated_cas_no": "",
    "SMILES": "OC1=C(O)C(O)=C(O)C(O)=C1O",
    "meta_data": {
        "InChI": "InChI=1S/C6H6O6/c7-1-2(8)4(10)6(12)5(11)3(1)9/h7-12H",
        "InChIKey": null,
        "Canonical SMILES": "OC=1C(O)=C(O)C(O)=C(O)C1O",
        "Molecular Formula": "C<sub>6</sub>H<sub>6</sub>O<sub>6</sub>",
        "Molecular Mass": "174.11",
        "Melting Point": "&gt;300 °C"
    }
}