{
    "cas_no": "27563-67-3",
    "key_name": "<em>N</em>-Methyldodecanamide",
    "cn_name": "N-甲基十二胺;N-甲基十二胺;N-甲基十二胺,98%;",
    "alternate_name": "Dodecanamide, <em>N</em>-methyl-;<em>N</em>-Methyldodecanamide;<em>N</em>-Methyllauramide;<em>N</em>-Methyllaurylamide",
    "duplicated_cas_no": "",
    "SMILES": "C(CCC(NC)=O)CCCCCCCC",
    "meta_data": {
        "InChI": "InChI=1S/C13H27NO/c1-3-4-5-6-7-8-9-10-11-12-13(15)14-2/h3-12H2,1-2H3,(H,14,15)",
        "InChIKey": null,
        "Canonical SMILES": "O=C(NC)CCCCCCCCCCC",
        "Molecular Formula": "C<sub>13</sub>H<sub>27</sub>NO",
        "Molecular Mass": "213.36",
        "Melting Point": "110 °C"
    }
}