{
    "cas_no": "968-49-0",
    "key_name": "19-Oxoandrostenedione",
    "cn_name": null,
    "alternate_name": "Androst-4-en-19-al, 3,17-dioxo-;3,17-Dioxoandrost-4-en-19-al;3,17-Dioxo-4-androsten-19-al;19-Aldoandrostenedione;19-Aldoandrost-4-ene-3,17-dione;19-Oxoandrost-4-ene-3,17-dione;Androst-4-en-19-al-3,17-dione;19-Oxoandrostenedione;NSC 76985",
    "duplicated_cas_no": "",
    "SMILES": "C(=O)[C@@]12[C@@]3([C@]([C@]4([C@](C)(CC3)C(=O)CC4)[H])(CCC1=CC(=O)CC2)[H])[H]",
    "meta_data": {
        "InChI": "InChI=1S/C19H24O3/c1-18-8-7-16-14(15(18)4-5-17(18)22)3-2-12-10-13(21)6-9-19(12,16)11-20/h10-11,14-16H,2-9H2,1H3/t14-,15-,16-,18-,19+/m0/s1",
        "InChIKey": null,
        "Canonical SMILES": "O=CC12C(=CC(=O)CC1)CCC3C2CCC4(C(=O)CCC34)C",
        "Molecular Formula": "C<sub>19</sub>H<sub>24</sub>O<sub>3</sub>",
        "Molecular Mass": "300.39",
        "Melting Point": "129-133 °C"
    }
}