{
    "cas_no": "530-57-4",
    "key_name": "Syringic acid",
    "cn_name": "丁香酸;3,5-二甲氧基-4-羟基苯甲酸;",
    "alternate_name": "Benzoic acid, 4-hydroxy-3,5-dimethoxy-;Syringic acid;4-Hydroxy-3,5-dimethoxybenzoic acid;3,5-Dimethoxy-4-hydroxybenzoic acid;Cedar acid;2,6-Dimethoxy-4-carboxyphenol;Gallic acid 3,5-dimethyl ether;NSC 2129",
    "duplicated_cas_no": "",
    "SMILES": "O(C)C1=C(O)C(OC)=CC(C(O)=O)=C1",
    "meta_data": {
        "InChI": "InChI=1S/C9H10O5/c1-13-6-3-5(9(11)12)4-7(14-2)8(6)10/h3-4,10H,1-2H3,(H,11,12)",
        "InChIKey": null,
        "Canonical SMILES": "O=C(O)C1=CC(OC)=C(O)C(OC)=C1",
        "Molecular Formula": "C<sub>9</sub>H<sub>10</sub>O<sub>5</sub>",
        "Molecular Mass": "198.17",
        "Melting Point": "206-209 °C",
        "Density": "0.99173 g/cm³ @ Temp: 39.9 °C; Press: 4 x 10⁵ Torr"
    }
}