{
    "cas_no": "3581-89-3",
    "key_name": "5-Methylthiazole",
    "cn_name": "5-甲基噻唑;",
    "alternate_name": "Thiazole, 5-methyl-;5-Methylthiazole;5-Methyl-1,3-thiazole",
    "duplicated_cas_no": "",
    "SMILES": "CC1=CN=CS1",
    "meta_data": {
        "InChI": "InChI=1S/C4H5NS/c1-4-2-5-3-6-4/h2-3H,1H3",
        "InChIKey": null,
        "Canonical SMILES": "N1=CSC(=C1)C",
        "Molecular Formula": "C<sub>4</sub>H<sub>5</sub>NS",
        "Molecular Mass": "99.15",
        "Boiling Point": "143-145 °C",
        "Melting Point": "67.1-68.3 °C",
        "Density": "1.127 g/cm³ @ Temp: 20 °C"
    }
}