{
    "cas_no": "607-97-6",
    "key_name": "Ethyl 2-ethylacetoacetate",
    "cn_name": "2-乙基乙酰乙酸乙酯;",
    "alternate_name": "Butanoic acid, 2-ethyl-3-oxo-, ethyl ester;Acetoacetic acid, 2-ethyl-, ethyl ester;Ethyl 2-ethyl-3-ketobutyrate;2-Ethylacetoacetic acid ethyl ester;Ethyl α-acetylbutyrate;Ethyl α-ethylacetoacetate;Ethyl 2-acetylbutyrate;Ethyl 2-ethyl-3-oxobutyrate;Ethyl 2-ethylacetylacetate;Ethyl 2-ethylacetoacetate;Ethyl 2-acetylbutanoate;Ethyl 2-ethyl-3-oxobutanoate;NSC 53775;2-Ethyl-3-oxobutanoic acid ethyl ester;2-Ethyl-3-oxo-butyric acid ethyl ester",
    "duplicated_cas_no": "105139-93-3",
    "SMILES": "C(C(OCC)=O)(C(C)=O)CC",
    "meta_data": {
        "InChI": "InChI=1S/C8H14O3/c1-4-7(6(3)9)8(10)11-5-2/h7H,4-5H2,1-3H3",
        "InChIKey": null,
        "Canonical SMILES": "O=C(OCC)C(C(=O)C)CC",
        "Molecular Formula": "C<sub>8</sub>H<sub>14</sub>O<sub>3</sub>",
        "Molecular Mass": "158.20",
        "Boiling Point": "198 °C",
        "Melting Point": "170 °C (decomp)",
        "Density": "0.98102 g/cm³ @ Temp: 420 °C"
    }
}