{
    "cas_no": "2899-37-8",
    "key_name": "<span class=\"text-smallcaps\">L</span>-Methioninol",
    "cn_name": null,
    "alternate_name": "1-Butanol, 2-amino-4-(methylthio)-, (2<em>S</em>)-;1-Butanol, 2-amino-4-(methylthio)-, <span class=\"text-smallcaps\">L</span>-;1-Butanol, 2-amino-4-(methylthio)-, (<em>S</em>)-;(2<em>S</em>)-2-Amino-4-(methylthio)-1-butanol;<span class=\"text-smallcaps\">L</span>-Methioninol;(<em>S</em>)-2-Amino-4-methylthio-1-butanol;((<em>S</em>)-1-(Hydroxymethyl)-3-(methylthio)propyl)amine;(2S)-2-Amino-4-methylthio-1-butanol;(2S)-2-Amino-4-(methylsulfanyl)butan-1-ol",
    "duplicated_cas_no": "",
    "SMILES": "[C@H](CCSC)(CO)N",
    "meta_data": {
        "InChI": "InChI=1S/C5H13NOS/c1-8-3-2-5(6)4-7/h5,7H,2-4,6H2,1H3/t5-/m0/s1",
        "InChIKey": null,
        "Canonical SMILES": "OCC(N)CCSC",
        "Molecular Formula": "C<sub>5</sub>H<sub>13</sub>NOS",
        "Molecular Mass": "135.23",
        "Boiling Point": "120 °C @ Press: 3 Torr",
        "Melting Point": "33-34 °C"
    }
}