{
    "cas_no": "35573-93-4",
    "key_name": "3-Chloro-1,1-diethoxypropane",
    "cn_name": "3-氯-1,1-二乙氧基丙烷;3-氯丙醛二乙醇缩醛;",
    "alternate_name": "Propane, 3-chloro-1,1-diethoxy-;Propionaldehyde, 3-chloro-, diethyl acetal;3-Chloro-1,1-diethoxypropane;3-Chloropropionaldehyde diethyl acetal;β-Chloropropanal diethyl acetal;3-Chloropropanal diethyl acetal;β-Chloropropionaldehyde diethyl acetal;1-Chloro-3,3-diethoxypropane;3,3-Diethoxypropyl chloride;NSC 60136;3-Chloroprionaldehyde diethyl acetal",
    "duplicated_cas_no": "",
    "SMILES": "C(CCCl)(OCC)OCC",
    "meta_data": {
        "InChI": "InChI=1S/C7H15ClO2/c1-3-9-7(5-6-8)10-4-2/h7H,3-6H2,1-2H3",
        "InChIKey": null,
        "Canonical SMILES": "ClCCC(OCC)OCC",
        "Molecular Formula": "C<sub>7</sub>H<sub>15</sub>ClO<sub>2</sub>",
        "Molecular Mass": "166.65",
        "Boiling Point": "74 °C @ Press: 20 Torr",
        "Density": "0.991 g/cm³ @ Temp: 20 °C"
    }
}