{
    "cas_no": "764-41-0",
    "key_name": "1,4-Dichloro-2-butene",
    "cn_name": null,
    "alternate_name": "2-Butene, 1,4-dichloro-;1,4-Dichloro-2-butene;NSC 9452",
    "duplicated_cas_no": "",
    "SMILES": "C(=CCCl)CCl",
    "meta_data": {
        "InChI": "InChI=1S/C4H6Cl2/c5-3-1-2-4-6/h1-2H,3-4H2",
        "InChIKey": null,
        "Canonical SMILES": "ClCC=CCCl",
        "Molecular Formula": "C<sub>4</sub>H<sub>6</sub>Cl<sub>2</sub>",
        "Molecular Mass": "125.00",
        "Boiling Point": "158 °C",
        "Melting Point": "3.5 °C",
        "Density": "1.1858 g/cm³"
    }
}