{
    "cas_no": "5122-36-1",
    "key_name": "4,6-Diamino-5-formamidopyrimidine",
    "cn_name": null,
    "alternate_name": "Formamide, <em>N</em>-(4,6-diamino-5-pyrimidinyl)-;<em>N</em>-(4,6-Diamino-5-pyrimidinyl)formamide;4,6-Diamino-5-formamidopyrimidine;FAPy-adenine;4,6-Diamino-5-(formylamino)pyrimidine",
    "duplicated_cas_no": "",
    "SMILES": "N(C=O)C=1C(N)=NC=NC1N",
    "meta_data": {
        "InChI": "InChI=1S/C5H7N5O/c6-4-3(10-2-11)5(7)9-1-8-4/h1-2H,(H,10,11)(H4,6,7,8,9)",
        "InChIKey": null,
        "Canonical SMILES": "O=CNC=1C(=NC=NC1N)N",
        "Molecular Formula": "C<sub>5</sub>H<sub>7</sub>N<sub>5</sub>O",
        "Molecular Mass": "153.14",
        "Melting Point": "224-226 °C"
    }
}