{
    "cas_no": "55271-46-0",
    "key_name": "4-Amino-3(2<em>H</em>)-pyridazinone",
    "cn_name": null,
    "alternate_name": "3(2<em>H</em>)-Pyridazinone, 4-amino-;4-Amino-3(2<em>H</em>)-pyridazinone;5-Aminopyridazin-6(1<em>H</em>)-one",
    "duplicated_cas_no": "",
    "SMILES": "NC=1C(=O)NN=CC1",
    "meta_data": {
        "InChI": "InChI=1S/C4H5N3O/c5-3-1-2-6-7-4(3)8/h1-2H,(H2,5,6)(H,7,8)",
        "InChIKey": null,
        "Canonical SMILES": "O=C1NN=CC=C1N",
        "Molecular Formula": "C<sub>4</sub>H<sub>5</sub>N<sub>3</sub>O",
        "Molecular Mass": "111.10",
        "Melting Point": "228-229 °C"
    }
}