{
    "cas_no": "106939-34-8",
    "key_name": "Ethyl (3<em>S</em>)-9,10-difluoro-2,3-dihydro-3-methyl-7-oxo-7<em>H</em>-pyrido[1,2,3-<em>de</em>]-1,4-benzoxazine-6-carboxylate",
    "cn_name": "左氧氟环合酯;左氧氟羧酸乙酯;(S)-9,10-二氟-3-甲基-7-氧代-2,3-二氢-7H-吡啶并[1,2,3-de]-1,4-苯骈恶嗪-6-;",
    "alternate_name": "7<em>H</em>-Pyrido[1,2,3-<em>de</em>]-1,4-benzoxazine-6-carboxylic acid, 9,10-difluoro-2,3-dihydro-3-methyl-7-oxo-, ethyl ester, (3<em>S</em>)-;7<em>H</em>-Pyrido[1,2,3-<em>de</em>]-1,4-benzoxazine-6-carboxylic acid, 9,10-difluoro-2,3-dihydro-3-methyl-7-oxo-, ethyl ester, (<em>S</em>)-;Ethyl (3<em>S</em>)-9,10-difluoro-2,3-dihydro-3-methyl-7-oxo-7<em>H</em>-pyrido[1,2,3-<em>de</em>]-1,4-benzoxazine-6-carboxylate;Ethyl 9,10-difluoro-3-(<em>S</em>)-methyl-7-oxo-2,3-dihydro-7<em>H</em>-pyrido[1,2,3-<em>de</em>]-1,4-benzoxazine-6-carboxylate",
    "duplicated_cas_no": "",
    "SMILES": "O=C1C=2C=3N(C=C1C(OCC)=O)[C@@H](C)COC3C(F)=C(F)C2",
    "meta_data": {
        "InChI": "InChI=1S/C15H13F2NO4/c1-3-21-15(20)9-5-18-7(2)6-22-14-11(17)10(16)4-8(12(14)18)13(9)19/h4-5,7H,3,6H2,1-2H3/t7-/m0/s1",
        "InChIKey": null,
        "Canonical SMILES": "O=C(OCC)C1=CN2C3=C(OCC2C)C(F)=C(F)C=C3C1=O",
        "Molecular Formula": "C<sub>15</sub>H<sub>13</sub>F<sub>2</sub>NO<sub>4</sub>",
        "Molecular Mass": "309.26",
        "Melting Point": "257-258 °C"
    }
}