{
    "cas_no": "124-07-2",
    "key_name": "Octanoic acid",
    "cn_name": "辛酸;羊脂酸;正辛酸;",
    "alternate_name": "Octanoic acid;Caprylic acid;<em>n</em>-Caprylic acid;Neo-Fat 8;1-Heptanecarboxylic acid;<em>n</em>-Octoic acid;Octylic acid;<em>n</em>-Octylic acid;<em>n</em>-Octanoic acid;Lunac 8-95;NAA 82;Prifac 2901;Lunac 8-98;Neo-Fat 8S;Kortacid 0899;Emery 657;NSC 5024;Edenor C 8-98-100;Cg 100 (fatty acid);Cg 100;Edenor 8-99MY;Edenor C 8-99MY;MCFA 8S;C 8-99K",
    "duplicated_cas_no": "2171005-29-9",
    "SMILES": "C(CCCCC)CC(O)=O",
    "meta_data": {
        "InChI": "InChI=1S/C8H16O2/c1-2-3-4-5-6-7-8(9)10/h2-7H2,1H3,(H,9,10)",
        "InChIKey": null,
        "Canonical SMILES": "O=C(O)CCCCCCC",
        "Molecular Formula": "C<sub>8</sub>H<sub>16</sub>O<sub>2</sub>",
        "Molecular Mass": "144.21",
        "Boiling Point": "239.7 °C",
        "Melting Point": "16.7 °C",
        "Density": "0.910 g/cm³ @ Temp: 20 °C"
    }
}