{
    "cas_no": "171919-37-2",
    "key_name": "1-Methyl-1<em>H</em>-pyrrolo[2,3-<em>b</em>]pyridine-3-carboxylic acid",
    "cn_name": null,
    "alternate_name": "1<em>H</em>-Pyrrolo[2,3-<em>b</em>]pyridine-3-carboxylic acid, 1-methyl-;1-Methyl-1<em>H</em>-pyrrolo[2,3-<em>b</em>]pyridine-3-carboxylic acid;1-Methylpyrrolo[2,3-<em>b</em>]pyridine-3-carboxylic acid",
    "duplicated_cas_no": "",
    "SMILES": "C(O)(=O)C=1C=2C(N(C)C1)=NC=CC2",
    "meta_data": {
        "InChI": "InChI=1S/C9H8N2O2/c1-11-5-7(9(12)13)6-3-2-4-10-8(6)11/h2-5H,1H3,(H,12,13)",
        "InChIKey": null,
        "Canonical SMILES": "O=C(O)C1=CN(C=2N=CC=CC12)C",
        "Molecular Formula": "C<sub>9</sub>H<sub>8</sub>N<sub>2</sub>O<sub>2</sub>",
        "Molecular Mass": "176.17",
        "Melting Point": "253-255 °C"
    }
}