{
    "cas_no": "215309-01-6",
    "key_name": "3-(4-Methyl-1-piperazinyl)benzoic acid",
    "cn_name": "3-(4-甲基-1-哌嗪)苯甲酸;",
    "alternate_name": "Benzoic acid, 3-(4-methyl-1-piperazinyl)-;3-(4-Methyl-1-piperazinyl)benzoic acid;3-(4-Methylpiperazin-1-yl)benzoic acid",
    "duplicated_cas_no": "",
    "SMILES": "C(O)(=O)C=1C=C(C=CC1)N2CCN(C)CC2",
    "meta_data": {
        "InChI": "InChI=1S/C12H16N2O2/c1-13-5-7-14(8-6-13)11-4-2-3-10(9-11)12(15)16/h2-4,9H,5-8H2,1H3,(H,15,16)",
        "InChIKey": null,
        "Canonical SMILES": "O=C(O)C1=CC=CC(=C1)N2CCN(C)CC2",
        "Molecular Formula": "C<sub>12</sub>H<sub>16</sub>N<sub>2</sub>O<sub>2</sub>",
        "Molecular Mass": "220.27",
        "Melting Point": "220 °C (decomp)"
    }
}