{
    "cas_no": "629-41-4",
    "key_name": "1,8-Octanediol",
    "cn_name": "1,8-辛二醇;",
    "alternate_name": "1,8-Octanediol;1,8-Dihydroxyoctane;α,ω-Octanediol;ω-Octanediol;1,8-Octamethylene glycol;NSC 81228;1,8-Octyleneglycol;Octamethylene glycol;Octane-1,8-diol",
    "duplicated_cas_no": "",
    "SMILES": "C(CCCCO)CCCO",
    "meta_data": {
        "InChI": "InChI=1S/C8H18O2/c9-7-5-3-1-2-4-6-8-10/h9-10H,1-8H2",
        "InChIKey": null,
        "Canonical SMILES": "OCCCCCCCCO",
        "Molecular Formula": "C<sub>8</sub>H<sub>18</sub>O<sub>2</sub>",
        "Molecular Mass": "146.23",
        "Boiling Point": "140-150 °C @ Press: 13 Torr",
        "Melting Point": "63 °C"
    }
}