{
    "cas_no": "2208-15-3",
    "key_name": "4-Bromo-3-hydroxy-2-naphthalenecarboxylic acid",
    "cn_name": null,
    "alternate_name": "2-Naphthalenecarboxylic acid, 4-bromo-3-hydroxy-;2-Naphthoic acid, 4-bromo-3-hydroxy-;4-Bromo-3-hydroxy-2-naphthalenecarboxylic acid;4-Bromo-3-hydroxy-2-naphthoic acid;Brotocol;Colequin;Higacol;Naftocol;Pronacol;1-Bromo-2-hydroxy-3-naphthoic acid;NSC 53065",
    "duplicated_cas_no": "",
    "SMILES": "BrC=1C2=C(C=C(C(O)=O)C1O)C=CC=C2",
    "meta_data": {
        "InChI": "InChI=1S/C11H7BrO3/c12-9-7-4-2-1-3-6(7)5-8(10(9)13)11(14)15/h1-5,13H,(H,14,15)",
        "InChIKey": null,
        "Canonical SMILES": "O=C(O)C1=CC=2C=CC=CC2C(Br)=C1O",
        "Molecular Formula": "C<sub>11</sub>H<sub>7</sub>BrO<sub>3</sub>",
        "Molecular Mass": "267.08",
        "Melting Point": "229 °C"
    }
}