{
    "cas_no": "26452-80-2",
    "key_name": "2,4-Dichloropyridine",
    "cn_name": "2,4-二氯吡啶;",
    "alternate_name": "Pyridine, 2,4-dichloro-;2,4-Dichloropyridine",
    "duplicated_cas_no": "",
    "SMILES": "ClC=1C=C(Cl)N=CC1",
    "meta_data": {
        "InChI": "InChI=1S/C5H3Cl2N/c6-4-1-2-8-5(7)3-4/h1-3H",
        "InChIKey": null,
        "Canonical SMILES": "ClC1=NC=CC(Cl)=C1",
        "Molecular Formula": "C<sub>5</sub>H<sub>3</sub>Cl<sub>2</sub>N",
        "Molecular Mass": "147.99",
        "Boiling Point": "184 °C",
        "Melting Point": "0 °C"
    }
}