{
    "cas_no": "180064-38-4",
    "key_name": "Minodronic acid",
    "cn_name": null,
    "alternate_name": "Phosphonic acid, <em>P</em>,<em>P</em>′-(1-hydroxy-2-imidazo[1,2-<em>a</em>]pyridin-3-ylethylidene)bis-;Phosphonic acid, (1-hydroxy-2-imidazo[1,2-<em>a</em>]pyridin-3-ylethylidene)bis-;Imidazo[1,2-<em>a</em>]pyridine, phosphonic acid deriv.;<em>P</em>,<em>P</em>′-(1-Hydroxy-2-imidazo[1,2-<em>a</em>]pyridin-3-ylethylidene)bis[phosphonic acid];YH 529;YM 529;Minodronic acid;ONO 5920;BPH 261;Recalbon;Bonoteo;[1-Hydroxy-2-(imidazo[1,2-<em>a</em>]pyridin-3-yl)ethylidene]bisphosphonic acid;(1-Hydroxy-2-(imidazo[1,2-<em>a</em>]pyridin-3-yl)ethane-1,1-diyl)diphosphonicacid;1-Hydroxy-2-(Imidazo[1,2-<em>a</em>]pyridin-3-yl)ethane-1,1-diphosphonic acid",
    "duplicated_cas_no": "127657-42-5",
    "SMILES": "C(C(P(=O)(O)O)(P(=O)(O)O)O)C=1N2C(=NC1)C=CC=C2",
    "meta_data": {
        "InChI": "InChI=1S/C9H12N2O7P2/c12-9(19(13,14)15,20(16,17)18)5-7-6-10-8-3-1-2-4-11(7)8/h1-4,6,12H,5H2,(H2,13,14,15)(H2,16,17,18)",
        "InChIKey": null,
        "Canonical SMILES": "O=P(O)(O)C(O)(CC1=CN=C2C=CC=CN21)P(=O)(O)O",
        "Molecular Formula": "C<sub>9</sub>H<sub>12</sub>N<sub>2</sub>O<sub>7</sub>P<sub>2</sub>",
        "Molecular Mass": "322.15",
        "Melting Point": "223-225 °C"
    }
}