{
    "cas_no": "16874-34-3",
    "key_name": "2-Furancarboxylic acid, tetrahydro-, ethyl ester",
    "cn_name": "2-四氢糠酸乙酯;",
    "alternate_name": "2-Furancarboxylic acid, tetrahydro-, ethyl ester;2-Furoic acid, tetrahydro-, ethyl ester;Ethyl tetrahydrofuroate;Ethyl 2-tetrahydrofuroate;Ethyl tetrahydro-2-furancarboxylate;Tetrahydro-2-furoic acid ethyl ester",
    "duplicated_cas_no": "",
    "SMILES": "C(OCC)(=O)C1CCCO1",
    "meta_data": {
        "InChI": "InChI=1S/C7H12O3/c1-2-9-7(8)6-4-3-5-10-6/h6H,2-5H2,1H3",
        "InChIKey": null,
        "Canonical SMILES": "O=C(OCC)C1OCCC1",
        "Molecular Formula": "C<sub>7</sub>H<sub>12</sub>O<sub>3</sub>",
        "Molecular Mass": "144.17",
        "Boiling Point": "80 °C @ Press: 11 Torr",
        "Density": "1.069 g/cm³ @ Temp: 10 °C"
    }
}