{
    "cas_no": "14389-86-7",
    "key_name": "2-(Benzyloxy)benzoic acid",
    "cn_name": "2-苄氧基苯甲酸;",
    "alternate_name": "Benzoic acid, 2-(phenylmethoxy)-;Benzoic acid, <em>o</em>-(benzyloxy)-;2-(Phenylmethoxy)benzoic acid;Salicylic acid benzyl ether;2-(Benzyloxy)benzoic acid;<em>o</em>-(Benzyloxy)benzoic acid;<em>O</em>-Benzylsalicylic acid;2-[(Phenylmethyl)oxy]benzoic acid",
    "duplicated_cas_no": "",
    "SMILES": "O(CC1=CC=CC=C1)C2=C(C(O)=O)C=CC=C2",
    "meta_data": {
        "InChI": "InChI=1S/C14H12O3/c15-14(16)12-8-4-5-9-13(12)17-10-11-6-2-1-3-7-11/h1-9H,10H2,(H,15,16)",
        "InChIKey": null,
        "Canonical SMILES": "O=C(O)C=1C=CC=CC1OCC=2C=CC=CC2",
        "Molecular Formula": "C<sub>14</sub>H<sub>12</sub>O<sub>3</sub>",
        "Molecular Mass": "228.24",
        "Melting Point": "77 °C"
    }
}