{
    "cas_no": "1119-87-5",
    "key_name": "1,2-Dodecanediol",
    "cn_name": "1,2-十二烷二醇;",
    "alternate_name": "1,2-Dodecanediol;1,2-Dihydroxydodecane;1,2-Dodecylene glycol;<em>n</em>-Dodecane-1,2-diol;NSC 25930;2-Hydroxylauryl alcohol",
    "duplicated_cas_no": "95909-60-7;2205885-38-5",
    "SMILES": "C(CCC(CO)O)CCCCCCC",
    "meta_data": {
        "InChI": "InChI=1S/C12H26O2/c1-2-3-4-5-6-7-8-9-10-12(14)11-13/h12-14H,2-11H2,1H3",
        "InChIKey": null,
        "Canonical SMILES": "OCC(O)CCCCCCCCCC",
        "Molecular Formula": "C<sub>12</sub>H<sub>26</sub>O<sub>2</sub>",
        "Molecular Mass": "202.33",
        "Boiling Point": "179-181 °C @ Press: 4 Torr",
        "Melting Point": "60-61 °C"
    }
}