{
    "cas_no": "1564-64-3",
    "key_name": "9-Bromoanthracene",
    "cn_name": "9-溴蒽;",
    "alternate_name": "Anthracene, 9-bromo-;9-Bromoanthracene;9-Anthracyl bromide;NSC 803;9-Anthracenyl bromide;10-Bromoanthracene",
    "duplicated_cas_no": "2417309-91-0",
    "SMILES": "BrC=1C2=C(C=C3C1C=CC=C3)C=CC=C2",
    "meta_data": {
        "InChI": "InChI=1S/C14H9Br/c15-14-12-7-3-1-5-10(12)9-11-6-2-4-8-13(11)14/h1-9H",
        "InChIKey": null,
        "Canonical SMILES": "BrC=1C=2C=CC=CC2C=C3C=CC=CC31",
        "Molecular Formula": "C<sub>14</sub>H<sub>9</sub>Br",
        "Molecular Mass": "257.13",
        "Boiling Point": "212-215 °C @ Press: 4 Torr",
        "Melting Point": "99-101 °C"
    }
}