{
    "cas_no": "38692-80-7",
    "key_name": "3-Bromo-4-hydroxyphenylacetic acid",
    "cn_name": null,
    "alternate_name": "Benzeneacetic acid, 3-bromo-4-hydroxy-;Acetic acid, (3-bromo-4-hydroxyphenyl)-;3-Bromo-4-hydroxybenzeneacetic acid;3-Bromo-4-hydroxyphenylacetic acid;2-(3-Bromo-4-hydroxyphenyl)acetic acid",
    "duplicated_cas_no": "",
    "SMILES": "C(C(O)=O)C1=CC(Br)=C(O)C=C1",
    "meta_data": {
        "InChI": "InChI=1S/C8H7BrO3/c9-6-3-5(4-8(11)12)1-2-7(6)10/h1-3,10H,4H2,(H,11,12)",
        "InChIKey": null,
        "Canonical SMILES": "O=C(O)CC1=CC=C(O)C(Br)=C1",
        "Molecular Formula": "C<sub>8</sub>H<sub>7</sub>BrO<sub>3</sub>",
        "Molecular Mass": "231.04",
        "Melting Point": "107 °C"
    }
}