{
    "cas_no": "55869-99-3",
    "key_name": "Anisodamine",
    "cn_name": null,
    "alternate_name": "Benzeneacetic acid, α-(hydroxymethyl)-, (1<em>R</em>,3<em>S</em>,5<em>R</em>,6<em>S</em>)-6-hydroxy-8-methyl-8-azabicyclo[3.2.1]oct-3-yl ester, (α<em>S</em>)-;Benzeneacetic acid, α-(hydroxymethyl)-, 6-hydroxy-8-methyl-8-azabicyclo[3.2.1]oct-3-yl ester, [1<em>R</em>-[1α,3β(<em>S</em>*),5α,6α]]-;Hyoscyamine, 6-hydroxy-;6-Hydroxyhyoscyamine;Anisodamine;6β-Hydroxyhyoscyamine;(-)-6β-Hydroxyhyoscyamine;(-)-(3<em>S</em>,6<em>S</em>,2′<em>S</em>)-6β-Hydroxyhyoscyamine;(-)-Anisodamine",
    "duplicated_cas_no": "39459-41-1;52646-91-0",
    "SMILES": "CN1[C@]2([C@@H](O)C[C@@]1(C[C@H](OC([C@H](CO)C3=CC=CC=C3)=O)C2)[H])[H]",
    "meta_data": {
        "InChI": "InChI=1S/C17H23NO4/c1-18-12-7-13(9-15(18)16(20)8-12)22-17(21)14(10-19)11-5-3-2-4-6-11/h2-6,12-16,19-20H,7-10H2,1H3/t12-,13-,14+,15+,16-/m0/s1",
        "InChIKey": null,
        "Canonical SMILES": "O=C(OC1CC2N(C)C(C1)C(O)C2)C(C=3C=CC=CC3)CO",
        "Molecular Formula": "C<sub>17</sub>H<sub>23</sub>NO<sub>4</sub>",
        "Molecular Mass": "305.37",
        "Melting Point": "62-63 °C"
    }
}