{
    "cas_no": "17823-38-0",
    "key_name": "4-Amino-2,3,5,6-tetrafluorobenzonitrile",
    "cn_name": "4-氨基-2,3,5,6-四氟苯甲腈;",
    "alternate_name": "Benzonitrile, 4-amino-2,3,5,6-tetrafluoro-;4-Amino-2,3,5,6-tetrafluorobenzonitrile;4-Aminotetrafluorobenzonitrile;4-Cyanotetrafluoroaniline;2,3,5,6-Tetrafluoro-4-cyanoaniline",
    "duplicated_cas_no": "",
    "SMILES": "C(#N)C1=C(F)C(F)=C(N)C(F)=C1F",
    "meta_data": {
        "InChI": "InChI=1S/C7H2F4N2/c8-3-2(1-12)4(9)6(11)7(13)5(3)10/h13H2",
        "InChIKey": null,
        "Canonical SMILES": "N#CC1=C(F)C(F)=C(N)C(F)=C1F",
        "Molecular Formula": "C<sub>7</sub>H<sub>2</sub>F<sub>4</sub>N<sub>2</sub>",
        "Molecular Mass": "190.10",
        "Melting Point": "96-97 °C",
        "Density": "1.712 g/cm³"
    }
}