{
    "cas_no": "3622-23-9",
    "key_name": "2,6-Dichlorobenzothiazole",
    "cn_name": "2,6-二氯苯并噻唑;",
    "alternate_name": "Benzothiazole, 2,6-dichloro-;2,6-Dichlorobenzothiazole;2,6-Dichlorobenzo[<em>d</em>]thiazole;2,6-Dichloro-1,3-benzothiazole;2-Chloro-6-chlorobenzo[<em>d</em>]thiazole",
    "duplicated_cas_no": "",
    "SMILES": "ClC1=NC=2C(S1)=CC(Cl)=CC2",
    "meta_data": {
        "InChI": "InChI=1S/C7H3Cl2NS/c8-4-1-2-5-6(3-4)11-7(9)10-5/h1-3H",
        "InChIKey": null,
        "Canonical SMILES": "ClC1=NC=2C=CC(Cl)=CC2S1",
        "Molecular Formula": "C<sub>7</sub>H<sub>3</sub>Cl<sub>2</sub>NS",
        "Molecular Mass": "204.08",
        "Melting Point": "101 °C"
    }
}