{
    "cas_no": "6738-04-1",
    "key_name": "2-Phenoxy-1,1′-biphenyl",
    "cn_name": "2-苯氧基联苯;2-苯氧基联苯基;2-苯氧基联苯基, 98+%;2-苯氧基联苯, 98+%;",
    "alternate_name": "1,1′-Biphenyl, 2-phenoxy-;Ether, 2-biphenylyl phenyl;2-Phenoxy-1,1′-biphenyl;2-Biphenylyl phenyl ether;<em>o</em>-Diphenyl phenyl ether;(2-Phenyloxy)biphenyl;<em>o</em>-Phenoxybiphenyl;2-Phenoxybiphenyl;NSC 66280;1-Phenoxy-2-phenylbenzene",
    "duplicated_cas_no": "",
    "SMILES": "O(C1=C(C=CC=C1)C2=CC=CC=C2)C3=CC=CC=C3",
    "meta_data": {
        "InChI": "InChI=1S/C18H14O/c1-3-9-15(10-4-1)17-13-7-8-14-18(17)19-16-11-5-2-6-12-16/h1-14H",
        "InChIKey": null,
        "Canonical SMILES": "O(C=1C=CC=CC1)C=2C=CC=CC2C=3C=CC=CC3",
        "Molecular Formula": "C<sub>18</sub>H<sub>14</sub>O",
        "Molecular Mass": "246.30",
        "Boiling Point": "200-201 °C",
        "Melting Point": "49.5 °C"
    }
}