{
    "cas_no": "121-92-6",
    "key_name": "3-Nitrobenzoic acid",
    "cn_name": "间硝基苯甲酸;",
    "alternate_name": "Benzoic acid, 3-nitro-;Benzoic acid, <em>m</em>-nitro-;3-Nitrobenzoic acid;<em>m</em>-Nitrobenzoic acid;<em>m</em>-Nitrobenzenecarboxylic acid;<em>m</em>-Carboxynitrobenzene;m-Nitrobenzoic acid;NSC 9801",
    "duplicated_cas_no": "",
    "SMILES": "C(O)(=O)C1=CC(N(=O)=O)=CC=C1",
    "meta_data": {
        "InChI": "InChI=1S/C7H5NO4/c9-7(10)5-2-1-3-6(4-5)8(11)12/h1-4H,(H,9,10)",
        "InChIKey": null,
        "Canonical SMILES": "O=C(O)C1=CC=CC(=C1)N(=O)=O",
        "Molecular Formula": "C<sub>7</sub>H<sub>5</sub>NO<sub>4</sub>",
        "Molecular Mass": "167.12",
        "Melting Point": "142 °C",
        "Density": "1.494 g/cm³"
    }
}