{
    "cas_no": "219714-96-2",
    "key_name": "Penoxsulam",
    "cn_name": null,
    "alternate_name": "Benzenesulfonamide, 2-(2,2-difluoroethoxy)-<em>N</em>-(5,8-dimethoxy[1,2,4]triazolo[1,5-<em>c</em>]pyrimidin-2-yl)-6-(trifluoromethyl)-;2-(2,2-Difluoroethoxy)-<em>N</em>-(5,8-dimethoxy[1,2,4]triazolo[1,5-<em>c</em>]pyrimidin-2-yl)-6-(trifluoromethyl)benzenesulfonamide;Penoxsulam;Granite;DASH 001;Ricer 240SC;Granite SC;Grasp;Grasp (benzenesulfonamide);Grasp EC;Clipper;Clipper (benzenesulfonamide);Clipper 20OD;Ricer;Granite (herbicide);Viper;Rainbow 25OD",
    "duplicated_cas_no": "",
    "SMILES": "S(NC=1N=C2N(N1)C(OC)=NC=C2OC)(=O)(=O)C3=C(OCC(F)F)C=CC=C3C(F)(F)F",
    "meta_data": {
        "InChI": "InChI=1S/C16H14F5N5O5S/c1-29-10-6-22-15(30-2)26-13(10)23-14(24-26)25-32(27,28)12-8(16(19,20)21)4-3-5-9(12)31-7-11(17)18/h3-6,11H,7H2,1-2H3,(H,24,25)",
        "InChIKey": null,
        "Canonical SMILES": "O=S(=O)(NC=1N=C2C(OC)=CN=C(OC)N2N1)C=3C(OCC(F)F)=CC=CC3C(F)(F)F",
        "Molecular Formula": "C<sub>16</sub>H<sub>14</sub>F<sub>5</sub>N<sub>5</sub>O<sub>5</sub>S",
        "Molecular Mass": "483.37",
        "Melting Point": "223-224 °C",
        "Density": "3.08 g/cm³"
    }
}