{
    "cas_no": "80890-47-7",
    "key_name": "Concanamycin A",
    "cn_name": "刀豆素A;",
    "alternate_name": "Oxacyclooctadeca-3,5,13,15-tetraen-2-one, 18-[(1<em>S</em>,2<em>R</em>,3<em>S</em>)-3-[(2<em>R</em>,4<em>R</em>,5<em>S</em>,6<em>R</em>)-4-[[4-<em>O</em>-(aminocarbonyl)-2,6-dideoxy-β-<span class=\"text-smallcaps\">D</span>-<em>arabino</em>-hexopyranosyl]oxy]tetrahydro-2-hydroxy-5-methyl-6-(1<em>E</em>)-1-propen-1-yl-2<em>H</em>-pyran-2-yl]-2-hydroxy-1-methylbutyl]-9-ethyl-8,10-dihydroxy-3,17-dimethoxy-5,7,11,13-tetramethyl-, (3<em>Z</em>,5<em>E</em>,7<em>R</em>,8<em>R</em>,9<em>S</em>,10<em>S</em>,11<em>R</em>,13<em>E</em>,15<em>E</em>,17<em>S</em>,18<em>R</em>)-;Concanamycin A;Oxacyclooctadeca-3,5,13,15-tetraen-2-one, 18-[(1<em>S</em>,2<em>R</em>,3<em>S</em>)-3-[(2<em>R</em>,4<em>R</em>,5<em>S</em>,6<em>R</em>)-4-[[4-<em>O</em>-(aminocarbonyl)-2,6-dideoxy-β-<span class=\"text-smallcaps\">D</span>-<em>arabino</em>-hexopyranosyl]oxy]tetrahydro-2-hydroxy-5-methyl-6-(1<em>E</em>)-1-propenyl-2<em>H</em>-pyran-2-yl]-2-hydroxy-1-methylbutyl]-9-ethyl-8,10-dihydroxy-3,17-dimethoxy-5,7,11,13-tetramethyl-, (3<em>Z</em>,5<em>E</em>,7<em>R</em>,8<em>R</em>,9<em>S</em>,10<em>S</em>,11<em>R</em>,13<em>E</em>,15<em>E</em>,17<em>S</em>,18<em>R</em>)-;Oxacyclooctadecane, concanamycin A deriv.;(3<em>Z</em>,5<em>E</em>,7<em>R</em>,8<em>R</em>,9<em>S</em>,10<em>S</em>,11<em>R</em>,13<em>E</em>,15<em>E</em>,17<em>S</em>,18<em>R</em>)-18-[(1<em>S</em>,2<em>R</em>,3<em>S</em>)-3-[(2<em>R</em>,4<em>R</em>,5<em>S</em>,6<em>R</em>)-4-[[4-<em>O</em>-(Aminocarbonyl)-2,6-dideoxy-β-<span class=\"text-smallcaps\">D</span>-<em>arabino</em>-hexopyranosyl]oxy]tetrahydro-2-hydroxy-5-methyl-6-(1<em>E</em>)-1-propen-1-yl-2<em>H</em>-pyran-2-yl]-2-hydroxy-1-methylbutyl]-9-ethyl-8,10-dihydroxy-3,17-dimethoxy-5,7,11,13-tetramethyloxacyclooctadeca-3,5,13,15-tetraen-2-one;[7<em>R</em>-[3<em>Z</em>,5<em>E</em>,7<em>R</em>*,8<em>R</em>*,9<em>S</em>*,10<em>S</em>*,11<em>R</em>*,13<em>E</em>,15<em>E</em>,17<em>S</em>*,18<em>R</em>*[1<em>S</em>*,2<em>R</em>*,3<em>S</em>*[2<em>R</em>*,4<em>R</em>*,5<em>S</em>*,6<em>R</em>*(<em>E</em>)]]]-18-[3-[4-[[4-<em>O</em>-(Aminocarbonyl)-2,6-dideoxy-β-<span class=\"text-smallcaps\">D</span>-<em>arabino</em>-hexopyranosyl]oxy]tetrahydro-2-hydroxy-5-methyl-6-(1-propenyl)-2<em>H</em>-pyran-2-yl]-2-hydroxy-1-methylbutyl]-9-ethyl-8,10-dihydroxy-3,17-dimethoxy-5,7,11,13-tetramethyloxacyclooctadeca-3,5,13,15-tetraen-2-one;Antibiotic X 4357B;X 4357B;Concanamycin;NSC 674620",
    "duplicated_cas_no": "66771-59-3;1348979-01-0",
    "SMILES": "",
    "meta_data": {
        "InChI": "",
        "InChIKey": null,
        "Canonical SMILES": "",
        "Molecular Formula": "C<sub>46</sub>H<sub>75</sub>NO<sub>14</sub>",
        "Molecular Mass": "866.09",
        "Melting Point": "179-180 °C"
    }
}