{
    "cas_no": "4551-69-3",
    "key_name": "1-Phenyl-3-methyl-4-benzoyl-5-pyrazolone",
    "cn_name": "4-苯(甲)酰-3-甲基-1-苯基-5-吡唑啉酮;1-苯基-3-甲基-4-苯甲酰基-5-吡唑啉酮;",
    "alternate_name": "3<em>H</em>-Pyrazol-3-one, 4-benzoyl-2,4-dihydro-5-methyl-2-phenyl-;2-Pyrazolin-5-one, 4-benzoyl-3-methyl-1-phenyl-;4-Benzoyl-2,4-dihydro-5-methyl-2-phenyl-3<em>H</em>-pyrazol-3-one;4-Benzoyl-3-methyl-1-phenyl-5-pyrazolone;4-Benzoyl-3-methyl-1-phenyl-2-pyrazolin-5-one;1-Phenyl-3-methyl-4-benzoylpyrazolin-5-one;1-Phenyl-3-methyl-4-benzoyl-2-pyrazolin-5-one;3-Methyl-1-phenyl-4-benzoyl-2-pyrazolin-5-one;1-Phenyl-3-methyl-4-benzoylpyrazolone;1-Phenyl-3-methyl-4-benzoyl-5-pyrazolone;1-Phenyl-3-methyl-4-benzoylpyrazolone-5;PMBP;1,4-Dihydro-1-phenyl-3-methyl-4-benzoyl-5<em>H</em>-pyrazol-5-one;4-Benzoyl-1-phenyl-3-methylpyrazol-5-one;NSC 144647;1-Phenyl-3-methyl-4-benzoyl-1<em>H</em>-pyrazol-5(4<em>H</em>)-one;4-Benzoyl-5-methyl-2-phenyl-2<em>H</em>-pyrazol-3(4<em>H</em>)-one",
    "duplicated_cas_no": "26446-16-2",
    "SMILES": "O=C1N(N=C(C)C1C(=O)C2=CC=CC=C2)C3=CC=CC=C3",
    "meta_data": {
        "InChI": "InChI=1S/C17H14N2O2/c1-12-15(16(20)13-8-4-2-5-9-13)17(21)19(18-12)14-10-6-3-7-11-14/h2-11,15H,1H3",
        "InChIKey": null,
        "Canonical SMILES": "O=C(C=1C=CC=CC1)C2C(=O)N(N=C2C)C=3C=CC=CC3",
        "Molecular Formula": "C<sub>17</sub>H<sub>14</sub>N<sub>2</sub>O<sub>2</sub>",
        "Molecular Mass": "278.31",
        "Melting Point": "85 °C"
    }
}