{
    "cas_no": "886-66-8",
    "key_name": "1,4-Diphenyl-1,3-butadiyne",
    "cn_name": "1,4-联苯基丁二炔;",
    "alternate_name": "Benzene, 1,1′-(1,3-butadiyne-1,4-diyl)bis-;Butadiyne, diphenyl-;1,1′-(1,3-Butadiyne-1,4-diyl)bis[benzene];Diphenylbutadiyne;Diphenyldiacetylene;1,4-Diphenylbutadiyne;1,4-Diphenyl-1,3-butadiyne;Diphenyl-1,3-butadiyne;1,4-Diphenyldiacetylene;NSC 529170;(4-Phenylbuta-1,3-diyn-1-yl)benzene;1,1′-Buta-1,3-diyne-1,4-diyldibenzene",
    "duplicated_cas_no": "",
    "SMILES": "C(#CC#CC1=CC=CC=C1)C2=CC=CC=C2",
    "meta_data": {
        "InChI": "InChI=1S/C16H10/c1-3-9-15(10-4-1)13-7-8-14-16-11-5-2-6-12-16/h1-6,9-12H",
        "InChIKey": null,
        "Canonical SMILES": "C(C#CC=1C=CC=CC1)#CC=2C=CC=CC2",
        "Molecular Formula": "C<sub>16</sub>H<sub>10</sub>",
        "Molecular Mass": "202.25",
        "Boiling Point": "85-90 °C @ Press: 0.3 Torr",
        "Melting Point": "86-87 °C"
    }
}