{
    "cas_no": "70958-20-2",
    "key_name": "5-Chloro-2-phenoxybenzeneacetic acid",
    "cn_name": "2-(5-氯-2-苯氧基苯基)乙酸;",
    "alternate_name": "Benzeneacetic acid, 5-chloro-2-phenoxy-;5-Chloro-2-phenoxybenzeneacetic acid;(5-Chloro-2-phenoxyphenyl)acetic acid;2-(5-Chloro-2-phenoxyphenyl)acetic acid",
    "duplicated_cas_no": "",
    "SMILES": "O(C1=C(CC(O)=O)C=C(Cl)C=C1)C2=CC=CC=C2",
    "meta_data": {
        "InChI": "InChI=1S/C14H11ClO3/c15-11-6-7-13(10(8-11)9-14(16)17)18-12-4-2-1-3-5-12/h1-8H,9H2,(H,16,17)",
        "InChIKey": null,
        "Canonical SMILES": "O=C(O)CC1=CC(Cl)=CC=C1OC=2C=CC=CC2",
        "Molecular Formula": "C<sub>14</sub>H<sub>11</sub>ClO<sub>3</sub>",
        "Molecular Mass": "262.69",
        "Melting Point": "124-125 °C"
    }
}