{
    "cas_no": "10025-65-7",
    "key_name": "Platinum dichloride",
    "cn_name": "二氯化铂;",
    "alternate_name": "Platinum chloride (PtCl<sub>2</sub>);Platinous chloride;Platinous dichloride;Platinum(II) dichloride;Platinum(II) chloride;Platinum dichloride",
    "duplicated_cas_no": "",
    "SMILES": "[Pt](Cl)Cl",
    "meta_data": {
        "InChI": "InChI=1S/2ClH.Pt/h2*1H;/q;;+2/p-2",
        "InChIKey": null,
        "Canonical SMILES": "Cl[Pt]Cl",
        "Molecular Formula": "Cl<sub>2</sub>Pt",
        "Molecular Mass": "",
        "Melting Point": "581 °C (decomp)",
        "Density": "5.87 g/cm³"
    }
}