{
    "cas_no": "1562-93-2",
    "key_name": "4-(2-Phenyldiazenyl)benzoic acid",
    "cn_name": "偶氮苯-4-苯甲酸;",
    "alternate_name": "Benzoic acid, 4-(2-phenyldiazenyl)-;Benzoic acid, <em>p</em>-(phenylazo)-;Benzoic acid, 4-(phenylazo)-;4-(2-Phenyldiazenyl)benzoic acid;Azobenzene-4-carboxylic acid;Azoic acid;4-Carboxyazobenzene;<em>p</em>-Phenylazobenzoic acid;4-(Phenylazo)benzoic acid;NSC 2522",
    "duplicated_cas_no": "",
    "SMILES": "N(=NC1=CC=CC=C1)C2=CC=C(C(O)=O)C=C2",
    "meta_data": {
        "InChI": "InChI=1S/C13H10N2O2/c16-13(17)10-6-8-12(9-7-10)15-14-11-4-2-1-3-5-11/h1-9H,(H,16,17)",
        "InChIKey": null,
        "Canonical SMILES": "O=C(O)C1=CC=C(N=NC=2C=CC=CC2)C=C1",
        "Molecular Formula": "C<sub>13</sub>H<sub>10</sub>N<sub>2</sub>O<sub>2</sub>",
        "Molecular Mass": "226.23",
        "Melting Point": "248.5-249.5 °C"
    }
}