{
    "cas_no": "961-69-3",
    "key_name": "Benzeneacetic acid, α-[(3-ethoxy-1-methyl-3-oxo-1-propen-1-yl)amino]-, potassium salt (1:1), (α<em>R</em>)-",
    "cn_name": "左旋苯甘氨酸乙基邓钾盐;",
    "alternate_name": "Benzeneacetic acid, α-[(3-ethoxy-1-methyl-3-oxo-1-propen-1-yl)amino]-, potassium salt (1:1), (α<em>R</em>)-;Crotonic acid, 3-[(α-carboxybenzyl)amino]-, 1-ethyl ester, monopotassium salt, <span class=\"text-smallcaps\">D</span>-(-)-;Benzeneacetic acid, α-[(3-ethoxy-1-methyl-3-oxo-1-propenyl)amino]-, monopotassium salt, (<em>R</em>)-;Benzeneacetic acid, α-[(3-ethoxy-1-methyl-3-oxo-1-propenyl)amino]-, monopotassium salt, (α<em>R</em>)-;Potassium <span class=\"text-smallcaps\">D</span>-(1-ethoxycarbonylpropen-2-yl)-α-aminophenylacetate",
    "duplicated_cas_no": "",
    "SMILES": "[C@H](NC(=CC(OCC)=O)C)(C(O)=O)C1=CC=CC=C1.[K]",
    "meta_data": {
        "InChI": "InChI=1S/C14H17NO4.K/c1-3-19-12(16)9-10(2)15-13(14(17)18)11-7-5-4-6-8-11;/h4-9,13,15H,3H2,1-2H3,(H,17,18);/t13-;/m1./s1",
        "InChIKey": null,
        "Canonical SMILES": "[K].O=C(OCC)C=C(NC(C(=O)O)C=1C=CC=CC1)C",
        "Molecular Formula": "C<sub>14</sub>H<sub>17</sub>NO<sub>4</sub>.K",
        "Molecular Mass": "",
        "Melting Point": "229-233 °C (decomp)"
    }
}