{
    "cas_no": "1187-84-4",
    "key_name": "(-)-<em>S</em>-Methyl-<span class=\"text-smallcaps\">L</span>-cysteine",
    "cn_name": "S-甲基-L-半胱氨酸;",
    "alternate_name": "<span class=\"text-smallcaps\">L</span>-Cysteine, <em>S</em>-methyl-;Alanine, 3-(methylthio)-, <span class=\"text-smallcaps\">L</span>-;<em>S</em>-Methyl-<span class=\"text-smallcaps\">L</span>-cysteine;<em>S</em>-Methylcysteine;<span class=\"text-smallcaps\">L</span>-<em>S</em>-Methylcysteine;3-(Methylthio)alanine;(-)-<em>S</em>-Methyl-<span class=\"text-smallcaps\">L</span>-cysteine;<em>S</em>-Methyl-(<em>R</em>)-cysteine;NSC 15387;(2R)-2-Amino-3-(methylsulfanyl)propanoic acid;(2R)-2-Azaniumyl-3-methylsulfanylpropanoate",
    "duplicated_cas_no": "1926-50-7",
    "SMILES": "[C@H](CSC)(C(O)=O)N",
    "meta_data": {
        "InChI": "InChI=1S/C4H9NO2S/c1-8-2-3(5)4(6)7/h3H,2,5H2,1H3,(H,6,7)/t3-/m0/s1",
        "InChIKey": null,
        "Canonical SMILES": "O=C(O)C(N)CSC",
        "Molecular Formula": "C<sub>4</sub>H<sub>9</sub>NO<sub>2</sub>S",
        "Molecular Mass": "135.18",
        "Melting Point": "248 °C (decomp)"
    }
}