{
    "cas_no": "61-68-7",
    "key_name": "Mefenamic acid",
    "cn_name": "甲灭酸;甲芬那酸;扑湿痛;N-(2,3-二甲苯基)-2-氨基苯甲酸;",
    "alternate_name": "Benzoic acid, 2-[(2,3-dimethylphenyl)amino]-;Anthranilic acid, <em>N</em>-2,3-xylyl-;2-[(2,3-Dimethylphenyl)amino]benzoic acid;C.I. 473;INF 3355;<em>N</em>-(2,3-Dimethylphenyl)anthranilic acid;Mefenamic acid;Mephenamic acid;Ponstan;<em>N</em>-(2,3-Xylyl)-2-aminobenzoic acid;<em>N</em>-(2,3-Xylyl)anthranilic acid;Coslan;Lysalgo;Parkemed;Ponstel;Ponstil;Ponstyl;Pontal;Tanston;Vialidon;Mefacit;2′,3′-Dimethyl-<em>N</em>-phenylanthranilic acid;Bonabol;Ponalar;Namphen;In-M;Mefenacid;Baphameritin M;Bafameritin M;CN 35355;NSC 94437;2-(2,3-Dimethylanilino)benzoic acid;Relafan;MeSH ID: D008528",
    "duplicated_cas_no": "",
    "SMILES": "N(C1=C(C(O)=O)C=CC=C1)C2=C(C)C(C)=CC=C2",
    "meta_data": {
        "InChI": "InChI=1S/C15H15NO2/c1-10-6-5-9-13(11(10)2)16-14-8-4-3-7-12(14)15(17)18/h3-9,16H,1-2H3,(H,17,18)",
        "InChIKey": null,
        "Canonical SMILES": "O=C(O)C=1C=CC=CC1NC2=CC=CC(=C2C)C",
        "Molecular Formula": "C<sub>15</sub>H<sub>15</sub>NO<sub>2</sub>",
        "Molecular Mass": "241.29",
        "Melting Point": "230-231 °C",
        "Density": "1.35 g/cm³"
    }
}