{
    "cas_no": "94593-91-6",
    "key_name": "Cinosulfuron",
    "cn_name": "醚黄隆;醚磺隆;3-(4,6-二甲氧基-1,3,5-三嗪-2-基)-1-[2-(2-甲氧基乙氧基)苯基]磺酰脲;",
    "alternate_name": "Benzenesulfonamide, <em>N</em>-[[(4,6-dimethoxy-1,3,5-triazin-2-yl)amino]carbonyl]-2-(2-methoxyethoxy)-;<em>N</em>-[[(4,6-Dimethoxy-1,3,5-triazin-2-yl)amino]carbonyl]-2-(2-methoxyethoxy)benzenesulfonamide;CGA 142464;Cinosulfuron;Dimetrasulfuron;Set-off",
    "duplicated_cas_no": "",
    "SMILES": "S(NC(NC=1N=C(OC)N=C(OC)N1)=O)(=O)(=O)C2=C(OCCOC)C=CC=C2",
    "meta_data": {
        "InChI": "InChI=1S/C15H19N5O7S/c1-24-8-9-27-10-6-4-5-7-11(10)28(22,23)20-13(21)16-12-17-14(25-2)19-15(18-12)26-3/h4-7H,8-9H2,1-3H3,(H2,16,17,18,19,20,21)",
        "InChIKey": null,
        "Canonical SMILES": "O=C(NC=1N=C(N=C(N1)OC)OC)NS(=O)(=O)C=2C=CC=CC2OCCOC",
        "Molecular Formula": "C<sub>15</sub>H<sub>19</sub>N<sub>5</sub>O<sub>7</sub>S",
        "Molecular Mass": "413.41",
        "Melting Point": "130 °C"
    }
}