{
    "cas_no": "5291-32-7",
    "key_name": "2-(Hydroxymethyl)-2-(methoxymethyl)-1-azabicyclo[2.2.2]octan-3-one",
    "cn_name": null,
    "alternate_name": "1-Azabicyclo[2.2.2]octan-3-one, 2-(hydroxymethyl)-2-(methoxymethyl)-;3-Quinuclidinone, 2-(hydroxymethyl)-2-(methoxymethyl)-;2-(Hydroxymethyl)-2-(methoxymethyl)-1-azabicyclo[2.2.2]octan-3-one;APR 246;PRIMA 1<sup>Met</sup>;Eprenetapopt;2-(hydroxymethyl)-2-(methoxymethyl)quinuclidin-3-one",
    "duplicated_cas_no": "",
    "SMILES": "C(OC)C1(CO)N2CCC(C1=O)CC2",
    "meta_data": {
        "InChI": "InChI=1S/C10H17NO3/c1-14-7-10(6-12)9(13)8-2-4-11(10)5-3-8/h8,12H,2-7H2,1H3",
        "InChIKey": null,
        "Canonical SMILES": "O=C1C2CCN(CC2)C1(CO)COC",
        "Molecular Formula": "C<sub>10</sub>H<sub>17</sub>NO<sub>3</sub>",
        "Molecular Mass": "199.25",
        "Melting Point": "115-116 °C"
    }
}