{
    "cas_no": "1086-80-2",
    "key_name": "Lumichrome",
    "cn_name": "光色素;",
    "alternate_name": "Benzo[<em>g</em>]pteridine-2,4(1<em>H</em>,3<em>H</em>)-dione, 7,8-dimethyl-;Alloxazine, 7,8-dimethyl-;7,8-Dimethylbenzo[<em>g</em>]pteridine-2,4(1<em>H</em>,3<em>H</em>)-dione;Lumichrome;7,8-Dimethylalloxazine;7,8-Dimethylisoalloxazine;Riboflavin lumichrome;NSC 96911",
    "duplicated_cas_no": "490-60-8",
    "SMILES": "O=C1C=2C(NC=3C(N2)=CC(C)=C(C)C3)=NC(=O)N1",
    "meta_data": {
        "InChI": "InChI=1S/C12H10N4O2/c1-5-3-7-8(4-6(5)2)14-10-9(13-7)11(17)16-12(18)15-10/h3-4H,1-2H3,(H2,14,15,16,17,18)",
        "InChIKey": null,
        "Canonical SMILES": "O=C1N=C2NC=3C=C(C(=CC3N=C2C(=O)N1)C)C",
        "Molecular Formula": "C<sub>12</sub>H<sub>10</sub>N<sub>4</sub>O<sub>2</sub>",
        "Molecular Mass": "242.23",
        "Melting Point": "&gt;300 °C"
    }
}