{
    "cas_no": "649-15-0",
    "key_name": "<em>N</em>,<em>N</em>-Diethyl-4-methylbenzenesulfonamide",
    "cn_name": "N,N-二乙基对甲苯磺酰胺;",
    "alternate_name": "Benzenesulfonamide, <em>N</em>,<em>N</em>-diethyl-4-methyl-;<em>p</em>-Toluenesulfonamide, <em>N</em>,<em>N</em>-diethyl-;<em>N</em>,<em>N</em>-Diethyl-4-methylbenzenesulfonamide;<em>N</em>,<em>N</em>-Diethyl-<em>p</em>-toluenesulfonamide;NSC 22501;4-Methyl-<em>N</em>,<em>N</em>-diethylbenzenesulfonamide",
    "duplicated_cas_no": "",
    "SMILES": "S(N(CC)CC)(=O)(=O)C1=CC=C(C)C=C1",
    "meta_data": {
        "InChI": "InChI=1S/C11H17NO2S/c1-4-12(5-2)15(13,14)11-8-6-10(3)7-9-11/h6-9H,4-5H2,1-3H3",
        "InChIKey": null,
        "Canonical SMILES": "O=S(=O)(C1=CC=C(C=C1)C)N(CC)CC",
        "Molecular Formula": "C<sub>11</sub>H<sub>17</sub>NO<sub>2</sub>S",
        "Molecular Mass": "227.32",
        "Melting Point": "59 °C"
    }
}