{
    "cas_no": "28079-04-1",
    "key_name": "(<em>Z</em>)-8-Dodecenyl acetate",
    "cn_name": "(Z)-8-十二烯-1-基醋酸盐;",
    "alternate_name": "8-Dodecen-1-ol, 1-acetate, (8<em>Z</em>)-;8-Dodecen-1-ol, acetate, (<em>Z</em>)-;8-Dodecen-1-ol, acetate, (8<em>Z</em>)-;<em>cis</em>-8-Dodecenyl acetate;<em>cis</em>-8-Dodecen-1-yl acetate;Orfamone;(<em>Z</em>)-8-Dodecen-1-ol acetate;Funemone;(<em>Z</em>)-8-Dodecen-1-yl acetate;GM;Denacil;(<em>Z</em>)-8-Dodecenyl acetate;(Z)-8-Dodecen-1-yl acetate;(8<em>Z</em>)-Dodec-8-en-1-ol acetate;(Z)-8-Dodecenyl acetate",
    "duplicated_cas_no": "",
    "SMILES": "C(CCC/C=C\\CCC)CCCOC(C)=O",
    "meta_data": {
        "InChI": "InChI=1S/C14H26O2/c1-3-4-5-6-7-8-9-10-11-12-13-16-14(2)15/h5-6H,3-4,7-13H2,1-2H3/b6-5-",
        "InChIKey": null,
        "Canonical SMILES": "O=C(OCCCCCCCC=CCCC)C",
        "Molecular Formula": "C<sub>14</sub>H<sub>26</sub>O<sub>2</sub>",
        "Molecular Mass": "226.35",
        "Boiling Point": "102-103 °C @ Press: 2 Torr"
    }
}