{
    "cas_no": "2010-61-9",
    "key_name": "4-Methyl-α,α-bis(trifluoromethyl)benzenemethanol",
    "cn_name": "六氟-2-(对甲苯基)异丙醇;",
    "alternate_name": "Benzenemethanol, 4-methyl-α,α-bis(trifluoromethyl)-;<em>p</em>-Cymen-8-ol, 9,9,9,10,10,10-hexafluoro-;4-Methyl-α,α-bis(trifluoromethyl)benzenemethanol;1,1,1,3,3,3-Hexafluoro-2-<em>p</em>-tolyl-2-propanol;1,1,1,3,3,3-Hexafluoro-2-(4-methylphenyl)-2-propanol;4-(2-Hydroxyhexafluoro-2-propyl)toluene;2-(<em>p</em>-Tolyl)-1,1,1,3,3,3-hexafluoro-2-propanol;2-(4-Methylphenyl)-1,1,1,3,3,3-hexafluoropropan-2-ol;Hexafluoro-2-(<em>p</em>-tolyl)-2-propanol",
    "duplicated_cas_no": "",
    "SMILES": "C(C(F)(F)F)(C(F)(F)F)(O)C1=CC=C(C)C=C1",
    "meta_data": {
        "InChI": "InChI=1S/C10H8F6O/c1-6-2-4-7(5-3-6)8(17,9(11,12)13)10(14,15)16/h2-5,17H,1H3",
        "InChIKey": null,
        "Canonical SMILES": "FC(F)(F)C(O)(C1=CC=C(C=C1)C)C(F)(F)F",
        "Molecular Formula": "C<sub>10</sub>H<sub>8</sub>F<sub>6</sub>O",
        "Molecular Mass": "258.16",
        "Boiling Point": "69-70 °C @ Press: 6 Torr",
        "Density": "1.4166 g/cm³ @ Temp: 20 °C"
    }
}