{
    "cas_no": "553-90-2",
    "key_name": "Dimethyl oxalate",
    "cn_name": null,
    "alternate_name": "Ethanedioic acid, 1,2-dimethyl ester;Ethanedioic acid, dimethyl ester;Oxalic acid, dimethyl ester;Dimethyl oxalate;Methyl oxalate;NSC 9374",
    "duplicated_cas_no": "",
    "SMILES": "C(C(OC)=O)(OC)=O",
    "meta_data": {
        "InChI": "InChI=1S/C4H6O4/c1-7-3(5)4(6)8-2/h1-2H3",
        "InChIKey": null,
        "Canonical SMILES": "O=C(OC)C(=O)OC",
        "Molecular Formula": "C<sub>4</sub>H<sub>6</sub>O<sub>4</sub>",
        "Molecular Mass": "118.09",
        "Boiling Point": "163.5 °C",
        "Melting Point": "54.3 °C"
    }
}