{
    "cas_no": "592-43-8",
    "key_name": "2-Hexene",
    "cn_name": "2-己烯;",
    "alternate_name": "2-Hexene;1-Methyl-1-pentene",
    "duplicated_cas_no": "",
    "SMILES": "C(C=CC)CC",
    "meta_data": {
        "InChI": "InChI=1S/C6H12/c1-3-5-6-4-2/h3,5H,4,6H2,1-2H3",
        "InChIKey": null,
        "Canonical SMILES": "C(=CCCC)C",
        "Molecular Formula": "C<sub>6</sub>H<sub>12</sub>",
        "Molecular Mass": "84.16",
        "Boiling Point": "68 °C",
        "Melting Point": "-98 °C",
        "Density": "0.6813 g/cm³ @ Temp: 20 °C"
    }
}