{
    "cas_no": "694-82-6",
    "key_name": "2-Fluorocyclohexanone",
    "cn_name": null,
    "alternate_name": "Cyclohexanone, 2-fluoro-;2-Fluorocyclohexanone;α-Fluorocyclohexanone;2-Fluorocyclohexan-1-one",
    "duplicated_cas_no": "",
    "SMILES": "FC1C(=O)CCCC1",
    "meta_data": {
        "InChI": "InChI=1S/C6H9FO/c7-5-3-1-2-4-6(5)8/h5H,1-4H2",
        "InChIKey": null,
        "Canonical SMILES": "O=C1CCCCC1F",
        "Molecular Formula": "C<sub>6</sub>H<sub>9</sub>FO",
        "Molecular Mass": "116.13",
        "Boiling Point": "76-77 °C @ Press: 17 Torr"
    }
}