{
    "cas_no": "40580-83-4",
    "key_name": "9<em>H</em>-Pyrido[3,4-<em>b</em>]indol-7-ol, 1-methyl-, hydrochloride (1:1)",
    "cn_name": "盐酸哈尔酚;",
    "alternate_name": "9<em>H</em>-Pyrido[3,4-<em>b</em>]indol-7-ol, 1-methyl-, hydrochloride (1:1);9<em>H</em>-Pyrido[3,4-<em>b</em>]indol-7-ol, 1-methyl-, monohydrochloride;Harmol hydrochloride;NSC 640470",
    "duplicated_cas_no": "",
    "SMILES": "CC1=C2C(C=3C(N2)=CC(O)=CC3)=CC=N1.Cl",
    "meta_data": {
        "InChI": "InChI=1S/C12H10N2O.ClH/c1-7-12-10(4-5-13-7)9-3-2-8(15)6-11(9)14-12;/h2-6,14-15H,1H3;1H",
        "InChIKey": null,
        "Canonical SMILES": "Cl.OC=1C=CC2=C(C1)NC3=C2C=CN=C3C",
        "Molecular Formula": "C<sub>12</sub>H<sub>10</sub>N<sub>2</sub>O.ClH",
        "Molecular Mass": "",
        "Melting Point": "265-267 °C"
    }
}