{
    "cas_no": "442-52-4",
    "key_name": "Clemizole",
    "cn_name": "吡咯咪唑;吡咯咪唑;",
    "alternate_name": "1<em>H</em>-Benzimidazole, 1-[(4-chlorophenyl)methyl]-2-(1-pyrrolidinylmethyl)-;Benzimidazole, 1-(<em>p</em>-chlorobenzyl)-2-(1-pyrrolidinylmethyl)-;Pyrrolidine, 1-[(1-<em>p</em>-chlorobenzyl-2-benzimidazolyl)methyl]-;1-[(4-Chlorophenyl)methyl]-2-(1-pyrrolidinylmethyl)-1<em>H</em>-benzimidazole;1-<em>p</em>-Chlorobenzyl-2-pyrrolidino-methylbenzimidazole;1-<em>p</em>-Chlorobenzyl-2-(1-pyrrolidinylmethyl)benzimidazole;1-(<em>p</em>-Chlorobenzyl)-2-pyrrolidylmethylenebenzimidazole;Histacur;Histakool;Clemizole;Lergopenin;Depocural;NSC 46261",
    "duplicated_cas_no": "",
    "SMILES": "C(N1C=2C(N=C1CN3CCCC3)=CC=CC2)C4=CC=C(Cl)C=C4",
    "meta_data": {
        "InChI": "InChI=1S/C19H20ClN3/c20-16-9-7-15(8-10-16)13-23-18-6-2-1-5-17(18)21-19(23)14-22-11-3-4-12-22/h1-2,5-10H,3-4,11-14H2",
        "InChIKey": null,
        "Canonical SMILES": "ClC1=CC=C(C=C1)CN2C=3C=CC=CC3N=C2CN4CCCC4",
        "Molecular Formula": "C<sub>19</sub>H<sub>20</sub>ClN<sub>3</sub>",
        "Molecular Mass": "325.84",
        "Melting Point": "167 °C"
    }
}