{
    "cas_no": "529-35-1",
    "key_name": "5,6,7,8-Tetrahydro-1-naphthol",
    "cn_name": "5,6,7,8-四氢-1-萘酚;四氢萘酚;5,6,7,8-四氢-1-萘酚;四氢-1-萘酚;",
    "alternate_name": "1-Naphthalenol, 5,6,7,8-tetrahydro-;1-Naphthol, 5,6,7,8-tetrahydro-;5,6,7,8-Tetrahydro-1-naphthalenol;5-Hydroxytetralin;5,6,7,8-Tetrahydro-1-naphthol;Tetrahydro-α-naphthol;5,6,7,8-Tetrahydro-α-naphthol;5,6,7,8-Tetrahydronaphthalen-1-ol;5,6,7,8-Tetrahydro-1-hydroxynaphthalene;1-Hydroxy-5,6,7,8-tetrahydronaphthalene;1,2,3,4-Tetrahydro-5-hydroxynaphthalene;NSC 28822;1,2,3,4-Tetrahydro-5-naphthol;Tetralin-5-ol;5,6,7,8-Tetrahydronaphthol;1,2,3,4-Tetrahydronaphthalen-5-ol",
    "duplicated_cas_no": "",
    "SMILES": "OC1=C2C(=CC=C1)CCCC2",
    "meta_data": {
        "InChI": "InChI=1S/C10H12O/c11-10-7-3-5-8-4-1-2-6-9(8)10/h3,5,7,11H,1-2,4,6H2",
        "InChIKey": null,
        "Canonical SMILES": "OC1=CC=CC2=C1CCCC2",
        "Molecular Formula": "C<sub>10</sub>H<sub>12</sub>O",
        "Molecular Mass": "148.20",
        "Boiling Point": "266 °C",
        "Melting Point": "70 °C"
    }
}