{
    "cas_no": "637-60-5",
    "key_name": "4-Methylphenylhydrazine hydrochloride",
    "cn_name": "4-甲基苯肼盐酸盐;对甲基苯肼盐酸盐;",
    "alternate_name": "Hydrazine, (4-methylphenyl)-, hydrochloride (1:1);Hydrazine, <em>p</em>-tolyl-, monohydrochloride;Hydrazine, (4-methylphenyl)-, monohydrochloride;Hydrazine, <em>p</em>-tolyl-, hydrochloride;<em>p</em>-Tolylhydrazine hydrochloride;4-Methylphenylhydrazine hydrochloride;<em>N</em>-(4-Methylphenyl)hydrazine hydrochloride;<em>p</em>-Methylphenylhydrazine hydrochloride;(4-Methylphenyl)hydrazine monohydrochloride;4-Tolylhydrazine monohydrochloride;4-Tolylhydrazine hydrochloride;1-(4-Methylphenyl)hydrazine hydrochloride;2-(4-Methylphenyl)hydrazinium chloride",
    "duplicated_cas_no": "2930054-26-3",
    "SMILES": "N(N)C1=CC=C(C)C=C1.Cl",
    "meta_data": {
        "InChI": "InChI=1S/C7H10N2.ClH/c1-6-2-4-7(9-8)5-3-6;/h2-5,9H,8H2,1H3;1H",
        "InChIKey": null,
        "Canonical SMILES": "Cl.NNC1=CC=C(C=C1)C",
        "Molecular Formula": "C<sub>7</sub>H<sub>10</sub>N<sub>2</sub>.ClH",
        "Molecular Mass": "",
        "Melting Point": "155-160 °C"
    }
}