{
    "cas_no": "26124-68-5",
    "key_name": "Glycolic acid polymer",
    "cn_name": null,
    "alternate_name": "Acetic acid, 2-hydroxy-, homopolymer;Glycolic acid, polyesters;Acetic acid, hydroxy-, homopolymer;Poly(glycolic acid);Glycolic acid polymer;Hydroxyacetic acid polymer;Dexon;Dexon (polyester);Glycolic acid homopolymer;Hydroxyacetic acid homopolymer;Poly(<span class=\"text-smallcaps\">L</span>-glycolic acid);Poly(α-hydroxyacetic acid);Glypure 70 homopolymer",
    "duplicated_cas_no": "",
    "SMILES": "C(CO)(O)=O",
    "meta_data": {
        "InChI": "InChI=1S/C2H4O3/c3-1-2(4)5/h3H,1H2,(H,4,5)",
        "InChIKey": null,
        "Canonical SMILES": "O=C(O)CO",
        "Molecular Formula": "(C<sub>2</sub>H<sub>4</sub>O<sub>3</sub>)<sub>x</sub>",
        "Molecular Mass": "",
        "Melting Point": "200-220 °C",
        "Density": "1.58 g/cm³ (approx)"
    }
}