{
    "cas_no": "84236-26-0",
    "key_name": "(+)-Bromonaproxen",
    "cn_name": null,
    "alternate_name": "2-Naphthaleneacetic acid, 5-bromo-6-methoxy-α-methyl-, (α<em>S</em>)-;2-Naphthaleneacetic acid, 5-bromo-6-methoxy-α-methyl-, (<em>S</em>)-;(α<em>S</em>)-5-Bromo-6-methoxy-α-methyl-2-naphthaleneacetic acid;(+)-5-Bromo-6-methoxy-α-methyl-2-naphthaleneacetic acid;(+)-Bromonaproxen;<em>S</em>-(+)-2-(5-Bromo-6-Methoxy-2-Naphthyl)propionic Acid;(<em>S</em>)-2-(5-Bromo-6-methoxy-2-naphthyl)propanoic acid",
    "duplicated_cas_no": "",
    "SMILES": "BrC=1C2=C(C=C([C@@H](C(O)=O)C)C=C2)C=CC1OC",
    "meta_data": {
        "InChI": "InChI=1S/C14H13BrO3/c1-8(14(16)17)9-3-5-11-10(7-9)4-6-12(18-2)13(11)15/h3-8H,1-2H3,(H,16,17)/t8-/m0/s1",
        "InChIKey": null,
        "Canonical SMILES": "O=C(O)C(C1=CC=C2C(Br)=C(OC)C=CC2=C1)C",
        "Molecular Formula": "C<sub>14</sub>H<sub>13</sub>BrO<sub>3</sub>",
        "Molecular Mass": "309.16",
        "Melting Point": "155-157 °C"
    }
}