{
    "cas_no": "116-85-8",
    "key_name": "1-Amino-4-hydroxyanthraquinone",
    "cn_name": "1-氨基-4-羟基蒽醌;",
    "alternate_name": "9,10-Anthracenedione, 1-amino-4-hydroxy-;Duranol Red 2B;Anthraquinone, 1-amino-4-hydroxy-;1-Amino-4-hydroxy-9,10-anthracenedione;C.I. 60710;Acetate Fast Red 2B;Acetoquinone Light Gooseberry RL;Acetylon Fast Pink B;Amacel Pink B;Artisil Direct Red 3BP;Artisil Red 3BP;Calcosyn Pink B;Celanthrene Red 3BN;Celliton Fast Pink BA-CF;Celliton Fast Pink BN;Celutate Pink B;Celutate Pink BN;Celutate Pink BY;Cibacet Red E 3B;Cibacet Red 3B;Cilla Fast Pink BN;C.I. Disperse Red 15;Diacelliton Fast Pink B;Fenacet Fast Pink B;Interchem Acetate Pink BLF;Interchem Hisperse Pink BH;Microsetile Pink BN;Nacelan Pink B;Neosetile Pink BN;Para M;Perliton Pink 3B;Serisol Fast Red 2B;Setacyl Pink 3B;Supracet Brilliant Red 2B;1-Amino-4-hydroxyanthraquinone;Disperse Red 2S;Disperse Red 15;4-Amino-1-hydroxyanthraquinone;Disperse Fast Pink B;1-Amino-4-hydroxy-9,10-anthraquinone;Dispersol Orange D-G;1-Hydroxy-4-aminoanthraquinone;C.I. Solvent Red 53;Oracet Red 3B;NSC 1485;4-Hydroxy-1-aminoanthraquinone;1-Hydroxy-4-amino-9,10-anthraquinone;Diacelliton Pink B;Dispersol Red A 2B;1-Amino-4-hydroxyl-9,10-anthracenedione;1-Amino-4-hydroxy-9,10-dihydroanthracene-9,10-dione",
    "duplicated_cas_no": "54466-29-4",
    "SMILES": "O=C1C=2C(C(=O)C=3C1=CC=CC3)=C(O)C=CC2N",
    "meta_data": {
        "InChI": "InChI=1S/C14H9NO3/c15-9-5-6-10(16)12-11(9)13(17)7-3-1-2-4-8(7)14(12)18/h1-6,16H,15H2",
        "InChIKey": null,
        "Canonical SMILES": "O=C1C=2C=CC=CC2C(=O)C=3C(N)=CC=C(O)C13",
        "Molecular Formula": "C<sub>14</sub>H<sub>9</sub>NO<sub>3</sub>",
        "Molecular Mass": "239.23",
        "Melting Point": "216 °C"
    }
}