{
    "cas_no": "75899-68-2",
    "key_name": "4-Hydroxynonenal",
    "cn_name": null,
    "alternate_name": "2-Nonenal, 4-hydroxy-, (2<em>E</em>)-;(2<em>E</em>)-4-Hydroxy-2-nonenal;4-Hydroxynonenal;(<em>E</em>)-4-Hydroxy-2-nonenal;4-Hydroxy-2(E)-nonenal;4-Hydroxy-2-<em>trans</em>-nonenal;4-Hydroxy-2-(<em>E</em>)-nonenal;4-Hydroxy-2-nonenal;Nonenal, 4-hydroxy-",
    "duplicated_cas_no": "128946-65-6;18286-49-2;29343-52-0",
    "SMILES": "C(C(/C=C/C=O)O)CCCC",
    "meta_data": {
        "InChI": "InChI=1/C9H16O2/c1-2-3-4-6-9(11)7-5-8-10/h5,7-9,11H,2-4,6H2,1H3/b7-5+",
        "InChIKey": null,
        "Canonical SMILES": "O=CC=CC(O)CCCCC",
        "Molecular Formula": "C<sub>9</sub>H<sub>16</sub>O<sub>2</sub>",
        "Molecular Mass": "156.22",
        "Boiling Point": "125-127 °C @ Press: 2 Torr"
    }
}