{
    "cas_no": "2735-04-8",
    "key_name": "2,4-Dimethoxyaniline",
    "cn_name": "2,4-二甲氧基苯胺;",
    "alternate_name": "Benzenamine, 2,4-dimethoxy-;Aniline, 2,4-dimethoxy-;2,4-Dimethoxybenzenamine;2,4-Dimethoxyaniline;2,4-Dimethoxyphenylamine;1-Amino-2,4-dimethoxybenzene;NSC 62019",
    "duplicated_cas_no": "",
    "SMILES": "O(C)C1=CC(OC)=CC=C1N",
    "meta_data": {
        "InChI": "InChI=1S/C8H11NO2/c1-10-6-3-4-7(9)8(5-6)11-2/h3-5H,9H2,1-2H3",
        "InChIKey": null,
        "Canonical SMILES": "O(C1=CC=C(N)C(OC)=C1)C",
        "Molecular Formula": "C<sub>8</sub>H<sub>11</sub>NO<sub>2</sub>",
        "Molecular Mass": "153.18",
        "Boiling Point": "144 °C @ Press: 20 Torr",
        "Melting Point": "33.5 °C"
    }
}