{
    "cas_no": "49763-65-7",
    "key_name": "4-Pentylbenzoyl chloride",
    "cn_name": null,
    "alternate_name": "Benzoyl chloride, 4-pentyl-;4-Pentylbenzoyl chloride;<em>p</em>-Pentylbenzoyl chloride;<em>p</em>-(<em>n</em>-Amyl)benzoyl chloride;4-<em>n</em>-Pentylbenzoyl chloride",
    "duplicated_cas_no": "",
    "SMILES": "C(CCCC)C1=CC=C(C(Cl)=O)C=C1",
    "meta_data": {
        "InChI": "InChI=1S/C12H15ClO/c1-2-3-4-5-10-6-8-11(9-7-10)12(13)14/h6-9H,2-5H2,1H3",
        "InChIKey": null,
        "Canonical SMILES": "O=C(Cl)C1=CC=C(C=C1)CCCCC",
        "Molecular Formula": "C<sub>12</sub>H<sub>15</sub>ClO",
        "Molecular Mass": "210.70",
        "Boiling Point": "136 °C @ Press: 3.2 Torr"
    }
}