{
    "cas_no": "85-29-0",
    "key_name": "2,4′-Dichlorobenzophenone",
    "cn_name": "2,4\"-二氯二苯甲酮;",
    "alternate_name": "Methanone, (2-chlorophenyl)(4-chlorophenyl)-;Benzophenone, 2,4′-dichloro-;(2-Chlorophenyl)(4-chlorophenyl)methanone;2,4′-Dichlorobenzophenone;<em>o</em>,<em>p</em>′-Dichlorobenzophenone;<em>o</em>,<em>p</em>′-DCBP;NSC 3221",
    "duplicated_cas_no": "",
    "SMILES": "C(=O)(C1=C(Cl)C=CC=C1)C2=CC=C(Cl)C=C2",
    "meta_data": {
        "InChI": "InChI=1S/C13H8Cl2O/c14-10-7-5-9(6-8-10)13(16)11-3-1-2-4-12(11)15/h1-8H",
        "InChIKey": null,
        "Canonical SMILES": "O=C(C1=CC=C(Cl)C=C1)C=2C=CC=CC2Cl",
        "Molecular Formula": "C<sub>13</sub>H<sub>8</sub>Cl<sub>2</sub>O",
        "Molecular Mass": "251.11",
        "Melting Point": "67 °C"
    }
}