{
    "cas_no": "2451-62-9",
    "key_name": "Triglycidyl isocyanurate",
    "cn_name": "1,3,5-三缩水甘油-S-三嗪三酮;异氰尿酸三缩水甘油酯;",
    "alternate_name": "1,3,5-Triazine-2,4,6(1<em>H</em>,3<em>H</em>,5<em>H</em>)-trione, 1,3,5-tris(2-oxiranylmethyl)-;<em>s</em>-Triazine-2,4,6(1<em>H</em>,3<em>H</em>,5<em>H</em>)-trione, 1,3,5-tris(2,3-epoxypropyl)-;1,3,5-Triazine-2,4,6(1<em>H</em>,3<em>H</em>,5<em>H</em>)-trione, 1,3,5-tris(oxiranylmethyl)-;<em>s</em>-Triazine-2,4,6(1<em>H</em>,3<em>H</em>,5<em>H</em>)-trione, tris(2,3-epoxypropyl)-;1,3,5-Tris(2-oxiranylmethyl)-1,3,5-triazine-2,4,6(1<em>H</em>,3<em>H</em>,5<em>H</em>)-trione;Tris(epoxypropyl) isocyanurate;1,3,5-Triglycidyl isocyanurate;Triglycidyl isocyanurate;1,3,5-Triglycidylisocyanuric acid;Tris(2,3-epoxypropyl) isocyanurate;1,3,5-Triglycidylhexahydro-1,3,5-triazine-2,4,6-trione;1,3,5-Triglycidyl-<em>s</em>-triazine-2,4,6-trione;Glycidyl isocyanurate;<em>N</em>,<em>N</em>′,<em>N</em>′′-Triglycidyl isocyanurate;TGT;NSC 269934;1,3,5-Tris(oxiranylmethyl)-1,3,5-triazine-2,4,6-trione;1,3,5-Tris(2,3-epoxypropyl) isocyanurate;PTGIC;1,3,5-Tris(oxiran-2-ylmethyl)-1,3,5-triazine-2,4,6-trione;HT 702;1,3,5-Tris(oxiran-2-ylmethyl)-1,3,5-triazinane-2,4,6-trione;1,3,5-Tris(oxiranylmethyl)-1,3,5-triazine-2,4,6(1<em>H</em>,3<em>H</em>,5<em>H</em>)trione;HT 708;TGIC 01",
    "duplicated_cas_no": "414867-60-0",
    "SMILES": "C(N1C(=O)N(CC2CO2)C(=O)N(CC3CO3)C1=O)C4CO4",
    "meta_data": {
        "InChI": "InChI=1S/C12H15N3O6/c16-10-13(1-7-4-19-7)11(17)15(3-9-6-21-9)12(18)14(10)2-8-5-20-8/h7-9H,1-6H2",
        "InChIKey": null,
        "Canonical SMILES": "O=C1N(C(=O)N(C(=O)N1CC2OC2)CC3OC3)CC4OC4",
        "Molecular Formula": "C<sub>12</sub>H<sub>15</sub>N<sub>3</sub>O<sub>6</sub>",
        "Molecular Mass": "297.26",
        "Boiling Point": "210 °C @ Press: 0.2 Torr",
        "Melting Point": "95 °C",
        "Density": "1.33 g/cm³"
    }
}