{
    "cas_no": "42916-73-4",
    "key_name": "1-[1,1′-Biphenyl]-4-yl-1-pentanone",
    "cn_name": "联苯戊酮;联苯戊酮;",
    "alternate_name": "1-Pentanone, 1-[1,1′-biphenyl]-4-yl-;1-[1,1′-Biphenyl]-4-yl-1-pentanone;<em>p</em>-Phenylvalerophenone;4-Pentanoylbiphenyl;4-Valerylbiphenyl;1-(4-Biphenylyl)-1-pentanone;1-(4-Phenylphenyl)pentan-1-one",
    "duplicated_cas_no": "",
    "SMILES": "C(CCCC)(=O)C1=CC=C(C=C1)C2=CC=CC=C2",
    "meta_data": {
        "InChI": "InChI=1S/C17H18O/c1-2-3-9-17(18)16-12-10-15(11-13-16)14-7-5-4-6-8-14/h4-8,10-13H,2-3,9H2,1H3",
        "InChIKey": null,
        "Canonical SMILES": "O=C(C=1C=CC(=CC1)C=2C=CC=CC2)CCCC",
        "Molecular Formula": "C<sub>17</sub>H<sub>18</sub>O",
        "Molecular Mass": "238.32",
        "Melting Point": "76-78 °C"
    }
}