{
    "cas_no": "10242-10-1",
    "key_name": "5-Chloro-2-benzofurancarboxylic acid",
    "cn_name": "5-氯苯并[b]呋喃-2-羧酸;5-氯苯并呋喃-2-羧酸;5-氯苯并呋喃-2-甲酸;",
    "alternate_name": "2-Benzofurancarboxylic acid, 5-chloro-;5-Chloro-2-benzofurancarboxylic acid;5-Chlorocoumarilic acid;5-Chlorobenzo[<em>b</em>]furan-2-carboxylic acid;5-Chloro-1-benzofuran-2-carboxylic acid;RT 63",
    "duplicated_cas_no": "",
    "SMILES": "C(O)(=O)C=1OC=2C(C1)=CC(Cl)=CC2",
    "meta_data": {
        "InChI": "InChI=1S/C9H5ClO3/c10-6-1-2-7-5(3-6)4-8(13-7)9(11)12/h1-4H,(H,11,12)",
        "InChIKey": null,
        "Canonical SMILES": "O=C(O)C=1OC=2C=CC(Cl)=CC2C1",
        "Molecular Formula": "C<sub>9</sub>H<sub>5</sub>ClO<sub>3</sub>",
        "Molecular Mass": "196.59",
        "Melting Point": "215-217 °C"
    }
}