{
    "cas_no": "34941-90-7",
    "key_name": "2,4-Difluoropyridine",
    "cn_name": "2,4-二氟吡啶;",
    "alternate_name": "Pyridine, 2,4-difluoro-;2,4-Difluoropyridine",
    "duplicated_cas_no": "",
    "SMILES": "FC=1C=C(F)N=CC1",
    "meta_data": {
        "InChI": "InChI=1S/C5H3F2N/c6-4-1-2-8-5(7)3-4/h1-3H",
        "InChIKey": null,
        "Canonical SMILES": "FC1=NC=CC(F)=C1",
        "Molecular Formula": "C<sub>5</sub>H<sub>3</sub>F<sub>2</sub>N",
        "Molecular Mass": "115.08",
        "Boiling Point": "104-106 °C"
    }
}