{
    "cas_no": "10128-72-0",
    "key_name": "4-Pyridinecarboxylic acid, 3-hydroxy-, methyl ester",
    "cn_name": null,
    "alternate_name": "4-Pyridinecarboxylic acid, 3-hydroxy-, methyl ester;Isonicotinic acid, 3-hydroxy-, methyl ester;Methyl 3-hydroxy-4-pyridinecarboxylate;Methyl 3-hydroxyisonicotinate",
    "duplicated_cas_no": "",
    "SMILES": "C(OC)(=O)C=1C(O)=CN=CC1",
    "meta_data": {
        "InChI": "InChI=1S/C7H7NO3/c1-11-7(10)5-2-3-8-4-6(5)9/h2-4,9H,1H3",
        "InChIKey": null,
        "Canonical SMILES": "O=C(OC)C=1C=CN=CC1O",
        "Molecular Formula": "C<sub>7</sub>H<sub>7</sub>NO<sub>3</sub>",
        "Molecular Mass": "153.14",
        "Melting Point": "79-80 °C"
    }
}