{
    "cas_no": "17289-53-1",
    "key_name": "2-(Diethylamino)-<em>N</em>-(2,4-dimethylphenyl)acetamide",
    "cn_name": null,
    "alternate_name": "Acetamide, 2-(diethylamino)-<em>N</em>-(2,4-dimethylphenyl)-;2′,4′-Acetoxylidide, 2-(diethylamino)-;2-(Diethylamino)-<em>N</em>-(2,4-dimethylphenyl)acetamide",
    "duplicated_cas_no": "",
    "SMILES": "N(C(CN(CC)CC)=O)C1=C(C)C=C(C)C=C1",
    "meta_data": {
        "InChI": "InChI=1S/C14H22N2O/c1-5-16(6-2)10-14(17)15-13-8-7-11(3)9-12(13)4/h7-9H,5-6,10H2,1-4H3,(H,15,17)",
        "InChIKey": null,
        "Canonical SMILES": "O=C(NC1=CC=C(C=C1C)C)CN(CC)CC",
        "Molecular Formula": "C<sub>14</sub>H<sub>22</sub>N<sub>2</sub>O",
        "Molecular Mass": "234.34",
        "Boiling Point": "150 °C @ Press: 1.8 Torr",
        "Melting Point": "67-68 °C"
    }
}