{
    "cas_no": "22298-29-9",
    "key_name": "Betamethasone benzoate",
    "cn_name": null,
    "alternate_name": "Pregna-1,4-diene-3,20-dione, 17-(benzoyloxy)-9-fluoro-11,21-dihydroxy-16-methyl-, (11β,16β)-;Pregna-1,4-diene-3,20-dione, 9-fluoro-11β,17,21-trihydroxy-16β-methyl-, 17-benzoate;(11β,16β)-17-(Benzoyloxy)-9-fluoro-11,21-dihydroxy-16-methylpregna-1,4-diene-3,20-dione;Betamethasone 17-benzoate;Betamethasone benzoate;MS 1112;Beben;Flurobate;Bebate;W 5975;Benisone;Euvaderm;Uticort;Parbetan",
    "duplicated_cas_no": "",
    "SMILES": "O(C(=O)C1=CC=CC=C1)[C@@]2(C(CO)=O)[C@]3(C)[C@@](C[C@@H]2C)([C@]4([C@](F)([C@@H](O)C3)[C@]5(C)C(CC4)=CC(=O)C=C5)[H])[H]",
    "meta_data": {
        "InChI": "InChI=1S/C29H33FO6/c1-17-13-22-21-10-9-19-14-20(32)11-12-26(19,2)28(21,30)23(33)15-27(22,3)29(17,24(34)16-31)36-25(35)18-7-5-4-6-8-18/h4-8,11-12,14,17,21-23,31,33H,9-10,13,15-16H2,1-3H3/t17-,21-,22-,23-,26-,27-,28-,29-/m0/s1",
        "InChIKey": null,
        "Canonical SMILES": "O=C1C=CC2(C(=C1)CCC3C4CC(C)C(OC(=O)C=5C=CC=CC5)(C(=O)CO)C4(C)CC(O)C32F)C",
        "Molecular Formula": "C<sub>29</sub>H<sub>33</sub>FO<sub>6</sub>",
        "Molecular Mass": "496.57",
        "Melting Point": "225-228 °C"
    }
}