{
    "cas_no": "27618-25-3",
    "key_name": "3-[(3-Methylphenyl)amino]propanenitrile",
    "cn_name": "N-氰乙基间甲苯胺;",
    "alternate_name": "Propanenitrile, 3-[(3-methylphenyl)amino]-;Propionitrile, 3-<em>m</em>-toluidino-;3-[(3-Methylphenyl)amino]propanenitrile;<em>N</em>-(β-Cyanoethyl)-<em>m</em>-toluidine;<em>N</em>-(2-Cyanoethyl)-3-methylaniline",
    "duplicated_cas_no": "",
    "SMILES": "N(CCC#N)C1=CC(C)=CC=C1",
    "meta_data": {
        "InChI": "InChI=1S/C10H12N2/c1-9-4-2-5-10(8-9)12-7-3-6-11/h2,4-5,8,12H,3,7H2,1H3",
        "InChIKey": null,
        "Canonical SMILES": "N#CCCNC1=CC=CC(=C1)C",
        "Molecular Formula": "C<sub>10</sub>H<sub>12</sub>N<sub>2</sub>",
        "Molecular Mass": "160.22",
        "Melting Point": "47.5-48.5 °C"
    }
}