{
    "cas_no": "20427-56-9",
    "key_name": "Ruthenium tetroxide",
    "cn_name": "四氧化钌;",
    "alternate_name": "Ruthenium oxide (RuO<sub>4</sub>), (<em>T</em>-4)-;Ruthenium oxide (RuO<sub>4</sub>);Ruthenium tetroxide;Ruthenium tetraoxide;Ruthenium(VIII) oxide;Ruthenium(VIII) tetraoxide;Tetraoxoruthenium",
    "duplicated_cas_no": "",
    "SMILES": "[Ru](=O)(=O)(=O)=O",
    "meta_data": {
        "InChI": "InChI=1S/4O.Ru",
        "InChIKey": null,
        "Canonical SMILES": "O=[Ru](=O)(=O)=O",
        "Molecular Formula": "O<sub>4</sub>Ru",
        "Molecular Mass": "",
        "Melting Point": "25 °C"
    }
}