{
    "cas_no": "64-18-6",
    "key_name": "Formic acid",
    "cn_name": "甲酸;蚁酸;",
    "alternate_name": "Formic acid;Aminic acid;Formylic acid;Hydrogen carboxylic acid;Methanoic acid;Bilorin;Collo-Bueglatt;Collo-Didax;Formisoton;Myrmicyl;Formira;Add-F;Methanoic acid monomer;Ameisensaure;Sybest;Wonderbond Hardener M 600L;Ensilox;Amasil;Amasil 85;Add-F (silage additive);MeSH ID: D005561",
    "duplicated_cas_no": "8006-93-7;82069-14-5;1016316-60-1;67382-92-7",
    "SMILES": "C(O)=O",
    "meta_data": {
        "InChI": "InChI=1S/CH2O2/c2-1-3/h1H,(H,2,3)",
        "InChIKey": null,
        "Canonical SMILES": "O=CO",
        "Molecular Formula": "CH<sub>2</sub>O<sub>2</sub>",
        "Molecular Mass": "46.03",
        "Boiling Point": "100.5 °C",
        "Melting Point": "8.4 °C",
        "Density": "1.220 g/cm³ @ Temp: 20 °C"
    }
}