{
    "cas_no": "22457-89-2",
    "key_name": "Benfotiamine",
    "cn_name": "苯磷硫胺;",
    "alternate_name": "Benzenecarbothioic acid, <em>S</em>-[2-[[(4-amino-2-methyl-5-pyrimidinyl)methyl]formylamino]-1-[2-(phosphonooxy)ethyl]-1-propen-1-yl] ester;Benzoic acid, thio-, <em>S</em>-ester with <em>N</em>-[(4-amino-2-methyl-5-pyrimidinyl)methyl]-<em>N</em>-(4-hydroxy-2-mercapto-1-methyl-1-butenyl)formamide dihydrogen phosphate (ester);Benzenecarbothioic acid, <em>S</em>-[2-[[(4-amino-2-methyl-5-pyrimidinyl)methyl]formylamino]-1-[2-(phosphonooxy)ethyl]-1-propenyl] ester;Formamide, <em>N</em>-[(4-amino-2-methyl-5-pyrimidinyl)methyl]-<em>N</em>-(4-hydroxy-2-mercapto-1-methyl-1-butenyl)-, <em>S</em>-benzoate <em>O</em>-(dihydrogen phosphate);<em>N</em>-[(4-Amino-2-methyl-5-pyrimidinyl)methyl]-<em>N</em>-(4-hydroxy-2-mercapto-1-methyl-1-butenyl)formamide <em>S</em>-benzoate <em>O</em>-phosphate;Benfotiamine;Benzoylthiamine monophosphate;Benzoylthiamine <em>O</em>-monophosphate;<em>S</em>-Benzoylthiamine monophosphate;<em>S</em>-Benzoylthiamine <em>O</em>-monophosphate;Biotamin;BTMP;Nitanevril;Neurostop;Vitanevril;Berdi;Betivina;Bietamine;Tabiomyl;Benfothiamine;8088CB;Milgamma",
    "duplicated_cas_no": "137-74-6",
    "SMILES": "C(N(C(=C(SC(=O)C1=CC=CC=C1)CCOP(=O)(O)O)C)C=O)C=2C(N)=NC(C)=NC2",
    "meta_data": {
        "InChI": "InChI=1S/C19H23N4O6PS/c1-13(23(12-24)11-16-10-21-14(2)22-18(16)20)17(8-9-29-30(26,27)28)31-19(25)15-6-4-3-5-7-15/h3-7,10,12H,8-9,11H2,1-2H3,(H2,20,21,22)(H2,26,27,28)",
        "InChIKey": null,
        "Canonical SMILES": "O=CN(C(=C(SC(=O)C=1C=CC=CC1)CCOP(=O)(O)O)C)CC2=CN=C(N=C2N)C",
        "Molecular Formula": "C<sub>19</sub>H<sub>23</sub>N<sub>4</sub>O<sub>6</sub>PS",
        "Molecular Mass": "466.45",
        "Melting Point": "165 °C (decomp)"
    }
}