{
    "cas_no": "24988-36-1",
    "key_name": "1,5-Dibromo-2,4-dimethoxybenzene",
    "cn_name": "1,3-二溴-4,6-二甲氧基苯;4,6-二溴-1,3-苯二甲醚;",
    "alternate_name": "Benzene, 1,5-dibromo-2,4-dimethoxy-;1,5-Dibromo-2,4-dimethoxybenzene;4,6-Dibromo-1,3-dimethoxybenzene;1,3-Dibromo-4,6-dimethoxybenzene;2,4-Dibromo-5-methoxyanisole",
    "duplicated_cas_no": "",
    "SMILES": "O(C)C1=CC(OC)=C(Br)C=C1Br",
    "meta_data": {
        "InChI": "InChI=1S/C8H8Br2O2/c1-11-7-4-8(12-2)6(10)3-5(7)9/h3-4H,1-2H3",
        "InChIKey": null,
        "Canonical SMILES": "BrC=1C=C(Br)C(OC)=CC1OC",
        "Molecular Formula": "C<sub>8</sub>H<sub>8</sub>Br<sub>2</sub>O<sub>2</sub>",
        "Molecular Mass": "295.96",
        "Melting Point": "141.5 °C"
    }
}