{
    "cas_no": "76757-91-0",
    "key_name": "<em>N</em>-[(1,1-Dimethylethoxy)carbonyl]-<em>O</em>-ethyl-<span class=\"text-smallcaps\">L</span>-tyrosine",
    "cn_name": "丁氧羰基-酪氨酸(乙基)-OH;",
    "alternate_name": "<span class=\"text-smallcaps\">L</span>-Tyrosine, <em>N</em>-[(1,1-dimethylethoxy)carbonyl]-<em>O</em>-ethyl-;<em>N</em>-[(1,1-Dimethylethoxy)carbonyl]-<em>O</em>-ethyl-<span class=\"text-smallcaps\">L</span>-tyrosine;(2S)-3-(4-Ethoxyphenyl)-2-[(2-methylpropan-2-yl)oxycarbonylamino]propanoic acid",
    "duplicated_cas_no": "",
    "SMILES": "C([C@H](NC(OC(C)(C)C)=O)C(O)=O)C1=CC=C(OCC)C=C1",
    "meta_data": {
        "InChI": "InChI=1S/C16H23NO5/c1-5-21-12-8-6-11(7-9-12)10-13(14(18)19)17-15(20)22-16(2,3)4/h6-9,13H,5,10H2,1-4H3,(H,17,20)(H,18,19)/t13-/m0/s1",
        "InChIKey": null,
        "Canonical SMILES": "O=C(OC(C)(C)C)NC(C(=O)O)CC1=CC=C(OCC)C=C1",
        "Molecular Formula": "C<sub>16</sub>H<sub>23</sub>NO<sub>5</sub>",
        "Molecular Mass": "309.36",
        "Melting Point": "80-81 °C"
    }
}