{
    "cas_no": "611-53-0",
    "key_name": "Ibacitabine",
    "cn_name": "5-碘-2\"-脱氧胞苷;",
    "alternate_name": "Cytidine, 2′-deoxy-5-iodo-;2′-Deoxy-5-iodocytidine;5-Iodo-2′-deoxycytidine;5-Iododeoxycytidine;Ibacitabine;NSC 527083",
    "duplicated_cas_no": "1938058-25-3",
    "SMILES": "O=C1N([C@@H]2O[C@H](CO)[C@@H](O)C2)C=C(I)C(N)=N1",
    "meta_data": {
        "InChI": "InChI=1S/C9H12IN3O4/c10-4-2-13(9(16)12-8(4)11)7-1-5(15)6(3-14)17-7/h2,5-7,14-15H,1,3H2,(H2,11,12,16)/t5-,6+,7+/m0/s1",
        "InChIKey": null,
        "Canonical SMILES": "O=C1N=C(N)C(I)=CN1C2OC(CO)C(O)C2",
        "Molecular Formula": "C<sub>9</sub>H<sub>12</sub>IN<sub>3</sub>O<sub>4</sub>",
        "Molecular Mass": "353.11",
        "Melting Point": "185-188 °C"
    }
}