{
    "cas_no": "88-99-3",
    "key_name": "Phthalic acid",
    "cn_name": "邻苯二甲酸;1,2-苯二甲酸;邻酞酸;",
    "alternate_name": "1,2-Benzenedicarboxylic acid;Phthalic acid;<em>o</em>-Benzenedicarboxylic acid;<em>o</em>-Dicarboxybenzene;Sunftal 20;<em>o</em>-Carboxybenzoic acid;M 2;NSC 5348;HA 21",
    "duplicated_cas_no": "4401-64-3",
    "SMILES": "C(O)(=O)C1=C(C(O)=O)C=CC=C1",
    "meta_data": {
        "InChI": "InChI=1S/C8H6O4/c9-7(10)5-3-1-2-4-6(5)8(11)12/h1-4H,(H,9,10)(H,11,12)",
        "InChIKey": null,
        "Canonical SMILES": "O=C(O)C=1C=CC=CC1C(=O)O",
        "Molecular Formula": "C<sub>8</sub>H<sub>6</sub>O<sub>4</sub>",
        "Molecular Mass": "166.13",
        "Melting Point": "191 °C (decomp)",
        "Density": "1.593 g/cm³ @ Temp: 15 °C"
    }
}