{
    "cas_no": "33342-05-1",
    "key_name": "Gliquidone",
    "cn_name": "格列喹酮;3-环己基-1-[4-[2-(3,4-二氢-7-甲氧基-4,4-二甲基-1,3-双氧基-2-(1H)-异喹啉基)-乙基]苯基]磺酰基;",
    "alternate_name": "Benzenesulfonamide, <em>N</em>-[(cyclohexylamino)carbonyl]-4-[2-(3,4-dihydro-7-methoxy-4,4-dimethyl-1,3-dioxo-2(1<em>H</em>)-isoquinolinyl)ethyl]-;<em>N</em>-[(Cyclohexylamino)carbonyl]-4-[2-(3,4-dihydro-7-methoxy-4,4-dimethyl-1,3-dioxo-2(1<em>H</em>)-isoquinolinyl)ethyl]benzenesulfonamide;Gliquidone;AR-DF 26;Glurenorm;ARDF 26SE;Beglynor;TangShiPing;TangShenPing;1-Cyclohexyl-3-[4-[2-(7-methoxy-4,4-dimethyl-1,3-dioxoisoquinolin-2-yl)ethyl]phenyl]sulfonylurea;1-Cyclohexyl-3-[4-[2-(7-methoxy-4,4-dimethyl-1,3-dioxo-1,2,3,4-tetrahydroisoquinolin-2-yl)ethyl]benzenesulfonyl]urea;ZINC 01482077;ZINC 1482077;ZINC ID: ZINC1482077",
    "duplicated_cas_no": "2411524-48-4",
    "SMILES": "CC1(C)C=2C(C(=O)N(CCC3=CC=C(S(NC(NC4CCCCC4)=O)(=O)=O)C=C3)C1=O)=CC(OC)=CC2",
    "meta_data": {
        "InChI": "InChI=1S/C27H33N3O6S/c1-27(2)23-14-11-20(36-3)17-22(23)24(31)30(25(27)32)16-15-18-9-12-21(13-10-18)37(34,35)29-26(33)28-19-7-5-4-6-8-19/h9-14,17,19H,4-8,15-16H2,1-3H3,(H2,28,29,33)",
        "InChIKey": null,
        "Canonical SMILES": "O=C(NC1CCCCC1)NS(=O)(=O)C2=CC=C(C=C2)CCN3C(=O)C4=CC(OC)=CC=C4C(C3=O)(C)C",
        "Molecular Formula": "C<sub>27</sub>H<sub>33</sub>N<sub>3</sub>O<sub>6</sub>S",
        "Molecular Mass": "527.63",
        "Melting Point": "181 °C"
    }
}