{
    "cas_no": "6797-79-1",
    "key_name": "4-Chloro-2-fluoro-1-iodobenzene",
    "cn_name": null,
    "alternate_name": "Benzene, 4-chloro-2-fluoro-1-iodo-;4-Chloro-2-fluoro-1-iodobenzene;4-Chloro-2-fluoroiodobenzene;2-Fluoro-4-chloroiodobenzene",
    "duplicated_cas_no": "",
    "SMILES": "FC1=C(I)C=CC(Cl)=C1",
    "meta_data": {
        "InChI": "InChI=1S/C6H3ClFI/c7-4-1-2-6(9)5(8)3-4/h1-3H",
        "InChIKey": null,
        "Canonical SMILES": "FC1=CC(Cl)=CC=C1I",
        "Molecular Formula": "C<sub>6</sub>H<sub>3</sub>ClFI",
        "Molecular Mass": "256.44",
        "Boiling Point": "206 °C"
    }
}