{
    "cas_no": "4568-71-2",
    "key_name": "3-Benzyl-5-(2-hydroxyethyl)-4-methylthiazolium chloride",
    "cn_name": "3-苯甲基-5-(2-羟基乙基)-4-甲基噻唑啉氯;3-苄基羟乙基甲基噻唑氯化锂;",
    "alternate_name": "Thiazolium, 5-(2-hydroxyethyl)-4-methyl-3-(phenylmethyl)-, chloride (1:1);Thiazolium, 3-benzyl-5-(2-hydroxyethyl)-4-methyl-, chloride;Thiazolium, 5-(2-hydroxyethyl)-4-methyl-3-(phenylmethyl)-, chloride;3-Benzyl-5-(2-hydroxyethyl)-4-methylthiazolium chloride;3-Benzyl-5-(2-hydroxyethyl)-4-methyl-1,3-thiazolium chloride;5-(2-Hydroxyethyl)-4-methyl-3-(phenylmethyl)thiazolium chloride;3-Benzyl-5-(2-hydroxyethyl)-4-methyl-1,3-thiazol-3-ium chloride;3-Benzyl-5-(2-hydroxyethyl)-4-methylthiazol-3-ium chloride;3-Benzyl-5-(hydroxyethyl)-4-methylthiazolium chloride",
    "duplicated_cas_no": "142674-45-1;86779-12-6",
    "SMILES": "C([N+]=1C(C)=C(CCO)SC1)C2=CC=CC=C2.[Cl-]",
    "meta_data": {
        "InChI": "InChI=1S/C13H16NOS.ClH/c1-11-13(7-8-15)16-10-14(11)9-12-5-3-2-4-6-12;/h2-6,10,15H,7-9H2,1H3;1H/q+1;/p-1",
        "InChIKey": null,
        "Canonical SMILES": "[Cl-].OCCC=1SC=[N+](C1C)CC=2C=CC=CC2",
        "Molecular Formula": "C<sub>13</sub>H<sub>16</sub>NOS.Cl",
        "Molecular Mass": "",
        "Melting Point": "140 °C"
    }
}