{
    "cas_no": "99-54-7",
    "key_name": "1,2-Dichloro-4-nitrobenzene",
    "cn_name": "3,4-二氯硝基苯;",
    "alternate_name": "Benzene, 1,2-dichloro-4-nitro-;1,2-Dichloro-4-nitrobenzene;3,4-Dichloronitrobenzene;1-Nitro-3,4-dichlorobenzene;NSC 6295;NSC 99806;DCNB;4-Nitro-1,2-dichlorobenzene",
    "duplicated_cas_no": "",
    "SMILES": "N(=O)(=O)C1=CC(Cl)=C(Cl)C=C1",
    "meta_data": {
        "InChI": "InChI=1S/C6H3Cl2NO2/c7-5-2-1-4(9(10)11)3-6(5)8/h1-3H",
        "InChIKey": null,
        "Canonical SMILES": "O=N(=O)C1=CC=C(Cl)C(Cl)=C1",
        "Molecular Formula": "C<sub>6</sub>H<sub>3</sub>Cl<sub>2</sub>NO<sub>2</sub>",
        "Molecular Mass": "192.00",
        "Boiling Point": "255-256 °C",
        "Melting Point": "43 °C",
        "Density": "1.4558 g/cm³ @ Temp: 75 °C"
    }
}