{
    "cas_no": "2295-58-1",
    "key_name": "Flopropione",
    "cn_name": "夫洛丙酮;三羟苯丙酮;1-(2,4,6-三羟基苯基)丙-1-酮;",
    "alternate_name": "1-Propanone, 1-(2,4,6-trihydroxyphenyl)-;Propiophenone, 2′,4′,6′-trihydroxy-;Phloropropiophenone;1-(2,4,6-Trihydroxyphenyl)-1-propanone;Flopropione;2′,4′,6′-Trihydroxypropiophenone;2,4,6-Trihydroxypropiophenone;RP 13907;Argobyl;Cospanon;Labroda;Labrodax supanate;Propiophloroglucine;Flopropion;Labrodax;13907 R. P.;Phloropropionone;Propionylphloroglucinol;Gallepronin;Spasmoril;Supazlun;Flopion;Spamorin;Supanate;Gasstenon;Profenon;Pasmus;NSC 97909;1-(2,4,6-Trihydroxyphenyl)propan-1-one",
    "duplicated_cas_no": "",
    "SMILES": "C(CC)(=O)C1=C(O)C=C(O)C=C1O",
    "meta_data": {
        "InChI": "InChI=1S/C9H10O4/c1-2-6(11)9-7(12)3-5(10)4-8(9)13/h3-4,10,12-13H,2H2,1H3",
        "InChIKey": null,
        "Canonical SMILES": "O=C(C=1C(O)=CC(O)=CC1O)CC",
        "Molecular Formula": "C<sub>9</sub>H<sub>10</sub>O<sub>4</sub>",
        "Molecular Mass": "182.17",
        "Melting Point": "175.5 °C"
    }
}