{
    "cas_no": "582-33-2",
    "key_name": "Ethyl 3-aminobenzoate",
    "cn_name": "3-氨基苯甲酸乙酯;间氨基苯甲酸乙酯;",
    "alternate_name": "Benzoic acid, 3-amino-, ethyl ester;Benzoic acid, <em>m</em>-amino-, ethyl ester;Ethyl <em>m</em>-aminobenzoate;Ethyl 3-aminobenzoate;<em>m</em>-Ethoxycarbonylaniline;3-(Ethoxycarbonyl)aniline;3-Carbethoxyaniline;3-Aminobenzoic acid ethyl ester;<em>m</em>-Aminobenzoic acid ethyl ester;(3-(Ethoxycarbonyl)phenyl)amine;NSC 39593;3-Ethoxycarbonylbenzeneamine",
    "duplicated_cas_no": "1865741-15-6",
    "SMILES": "C(OCC)(=O)C1=CC(N)=CC=C1",
    "meta_data": {
        "InChI": "InChI=1S/C9H11NO2/c1-2-12-9(11)7-4-3-5-8(10)6-7/h3-6H,2,10H2,1H3",
        "InChIKey": null,
        "Canonical SMILES": "O=C(OCC)C=1C=CC=C(N)C1",
        "Molecular Formula": "C<sub>9</sub>H<sub>11</sub>NO<sub>2</sub>",
        "Molecular Mass": "165.19",
        "Boiling Point": "294 °C",
        "Melting Point": "33-35 °C",
        "Density": "1.1248 g/cm³ @ Temp: 22 °C"
    }
}