{
    "cas_no": "832735-61-2",
    "key_name": "5-Bromo-1-(difluoromethyl)-2(1<em>H</em>)-pyridinone",
    "cn_name": null,
    "alternate_name": "2(1<em>H</em>)-Pyridinone, 5-bromo-1-(difluoromethyl)-;5-Bromo-1-(difluoromethyl)-2(1<em>H</em>)-pyridinone;5-Bromo-1-(difluoromethyl)pyridine-2(1<em>H</em>)-one;5-Bromo-1-difluoromethyl-1<em>H</em>-pyridin-2-one;5-Bromo-1-(difluoromethyl)pyridin-2(1<em>H</em>)-one;5-Bromo-1-(difluoromethyl)-1,2-dihydropyridin-2-one",
    "duplicated_cas_no": "",
    "SMILES": "C(F)(F)N1C(=O)C=CC(Br)=C1",
    "meta_data": {
        "InChI": "InChI=1S/C6H4BrF2NO/c7-4-1-2-5(11)10(3-4)6(8)9/h1-3,6H",
        "InChIKey": null,
        "Canonical SMILES": "O=C1C=CC(Br)=CN1C(F)F",
        "Molecular Formula": "C<sub>6</sub>H<sub>4</sub>BrF<sub>2</sub>NO",
        "Molecular Mass": "224.00",
        "Melting Point": "74-76 °C"
    }
}