{
    "cas_no": "85-27-8",
    "key_name": "4-(1-Phenylethyl)-1,3-benzenediol",
    "cn_name": null,
    "alternate_name": "1,3-Benzenediol, 4-(1-phenylethyl)-;Resorcinol, 4-(α-methylbenzyl)-;4-(1-Phenylethyl)-1,3-benzenediol;4-(α-Methylbenzyl)resorcinol;4-(1-Phenylethyl)resorcinol;4-(1-Phenylethyl)resorcin;4-(1-Phenylethyl)benzene-1,3-diol;SymWhite 377;Phenylethyl resorcinol",
    "duplicated_cas_no": "",
    "SMILES": "C(C)(C1=C(O)C=C(O)C=C1)C2=CC=CC=C2",
    "meta_data": {
        "InChI": "InChI=1S/C14H14O2/c1-10(11-5-3-2-4-6-11)13-8-7-12(15)9-14(13)16/h2-10,15-16H,1H3",
        "InChIKey": null,
        "Canonical SMILES": "OC1=CC=C(C(O)=C1)C(C=2C=CC=CC2)C",
        "Molecular Formula": "C<sub>14</sub>H<sub>14</sub>O<sub>2</sub>",
        "Molecular Mass": "214.26",
        "Boiling Point": "243-244 °C @ Press: 12 Torr",
        "Melting Point": "79 °C"
    }
}