{
    "cas_no": "993-16-8",
    "key_name": "Methyltin trichloride",
    "cn_name": "三氯甲基锡;三氯甲基锡;",
    "alternate_name": "Stannane, trichloromethyl-;Methyltin trichloride;Trichloromethylstannane;Trichloromethyltin;Methyltrichlorostannane;Methyltrichlorotin;Monomethyltin trichloride",
    "duplicated_cas_no": "",
    "SMILES": "[Sn](C)(Cl)(Cl)Cl",
    "meta_data": {
        "InChI": "InChI=1S/CH3.3ClH.Sn/h1H3;3*1H;/q;;;;+3/p-3",
        "InChIKey": null,
        "Canonical SMILES": "Cl[Sn](Cl)(Cl)C",
        "Molecular Formula": "CH<sub>3</sub>Cl<sub>3</sub>Sn",
        "Molecular Mass": "240.10",
        "Boiling Point": "171 °C",
        "Melting Point": "45.5 °C"
    }
}