{
    "cas_no": "84-87-7",
    "key_name": "1-Naphthol-4-sulfonic acid",
    "cn_name": "1-萘酚-4-磺酸;4-羟基-1-萘磺酸;",
    "alternate_name": "1-Naphthalenesulfonic acid, 4-hydroxy-;4-Hydroxy-1-naphthalenesulfonic acid;α-Naphthol-4-sulfonic acid;1-Naphthol-4-sulfonic acid;Nevile and Winther's acid;1,4-Oxy Acid;1-Hydroxy-4-naphthalenesulfonic acid;NW Acid;NSC 9587;1-Hydroxy-naphthalene-4-sulphonic acid",
    "duplicated_cas_no": "",
    "SMILES": "S(=O)(=O)(O)C=1C2=C(C(O)=CC1)C=CC=C2",
    "meta_data": {
        "InChI": "InChI=1S/C10H8O4S/c11-9-5-6-10(15(12,13)14)8-4-2-1-3-7(8)9/h1-6,11H,(H,12,13,14)",
        "InChIKey": null,
        "Canonical SMILES": "O=S(=O)(O)C1=CC=C(O)C=2C=CC=CC21",
        "Molecular Formula": "C<sub>10</sub>H<sub>8</sub>O<sub>4</sub>S",
        "Molecular Mass": "224.23",
        "Melting Point": "170 °C (decomp)"
    }
}