{
    "cas_no": "6175-45-7",
    "key_name": "2,2-Diethoxyacetophenone",
    "cn_name": "2,2-二乙氧基苯乙酮;",
    "alternate_name": "Ethanone, 2,2-diethoxy-1-phenyl-;Glyoxal, phenyl-, 2-(diethyl acetal);Glyoxal, phenyl-, diethyl acetal;Acetophenone, 2,2-diethoxy-;2,2-Diethoxy-1-phenylethanone;2,2-Diethoxyacetophenone;α,α-Diethoxyacetophenone;Phenylglyoxal diethyl acetal;Diethoxyacetophenone;DEAP;Genocure DEAP;NSC 66180;2,2-Diethoxy-1-phenyl-1-ethanone;Firstcure DEAP",
    "duplicated_cas_no": "64131-70-0;85568-36-1",
    "SMILES": "C(C(=O)C1=CC=CC=C1)(OCC)OCC",
    "meta_data": {
        "InChI": "InChI=1S/C12H16O3/c1-3-14-12(15-4-2)11(13)10-8-6-5-7-9-10/h5-9,12H,3-4H2,1-2H3",
        "InChIKey": null,
        "Canonical SMILES": "O=C(C=1C=CC=CC1)C(OCC)OCC",
        "Molecular Formula": "C<sub>12</sub>H<sub>16</sub>O<sub>3</sub>",
        "Molecular Mass": "208.25",
        "Boiling Point": "148.5-150 °C @ Press: 2.2 Torr",
        "Density": "1.044 g/cm³ @ Temp: 20 °C"
    }
}