{
    "cas_no": "3685-84-5",
    "key_name": "Centrophenoxine",
    "cn_name": "盐酸甲氯芬酯;氯醒酯;2-(二甲基氨基)乙基对氯苯氧基乙酸酯盐酸盐;",
    "alternate_name": "Acetic acid, 2-(4-chlorophenoxy)-, 2-(dimethylamino)ethyl ester, hydrochloride (1:1);Acetic acid, (<em>p</em>-chlorophenoxy)-, 2-(dimethylamino)ethyl ester hydrochloride;Acetic acid, (4-chlorophenoxy)-, 2-(dimethylamino)ethyl ester, hydrochloride;Dimethylaminoethyl 4-chlorophenoxyacetate hydrochloride;Acephen;Centrophenoxine hydrochloride;Lucidryl hydrochloride;Meclofenoxate hydrochloride;Centrophenoxine;2-(Dimethylamino)ethyl (<em>p</em>-chlorophenoxy)acetate hydrochloride;Meclophenoxate hydrochloride;Acefen;Lucidril;Cerutil;Dimethylaminoethyl <em>p</em>-chlorophenoxyacetate hydrochloride;Helfergin;Marucotol;Methocynal;Cellative;Proserout;Brenal;(4-Chlorophenoxy)-2-acetoxyethyldimethylammonium hydrochloride;2-(Dimethylamino)ethyl 2-(4-chlorophenoxy)acetate hydrochloride",
    "duplicated_cas_no": "1334-20-9",
    "SMILES": "O(CC(OCCN(C)C)=O)C1=CC=C(Cl)C=C1.Cl",
    "meta_data": {
        "InChI": "InChI=1S/C12H16ClNO3.ClH/c1-14(2)7-8-16-12(15)9-17-11-5-3-10(13)4-6-11;/h3-6H,7-9H2,1-2H3;1H",
        "InChIKey": null,
        "Canonical SMILES": "Cl.O=C(OCCN(C)C)COC1=CC=C(Cl)C=C1",
        "Molecular Formula": "C<sub>12</sub>H<sub>16</sub>ClNO<sub>3</sub>.ClH",
        "Molecular Mass": "",
        "Melting Point": "135-139 °C"
    }
}