{
    "cas_no": "33693-04-8",
    "key_name": "Terbumeton",
    "cn_name": "特丁通;甲氧去草净;甲氧去草净[含量＞20%];甲氧乙特丁嗪;特丁通;",
    "alternate_name": "1,3,5-Triazine-2,4-diamine, <em>N</em><sup>2</sup>-(1,1-dimethylethyl)-<em>N</em><sup>4</sup>-ethyl-6-methoxy-;1,3,5-Triazine-2,4-diamine, <em>N</em>-(1,1-dimethylethyl)-<em>N</em>′-ethyl-6-methoxy-;<em>s</em>-Triazine, 2-(<em>tert</em>-butylamino)-4-(ethylamino)-6-methoxy-;<em>N</em><sup>2</sup>-(1,1-Dimethylethyl)-<em>N</em><sup>4</sup>-ethyl-6-methoxy-1,3,5-triazine-2,4-diamine;2-Methoxy-4-ethylamino-6-<em>tert</em>-butylamino-<em>s</em>-triazine;GS 14259;4-(Ethylamino)-2-methoxy-6-(<em>tert</em>-butylamino)-<em>s</em>-triazine;Tribunil G 14259;A 2591;Caragard;Terbumeton;Terbuthylon;Terbutone;MEBT;Karagard;<em>tert</em>-Bumeton;2-<em>N</em>-<em>tert</em>-Butyl-4-<em>N</em>-ethyl-6-methoxy-1,3,5-triazine-2,4-diamine",
    "duplicated_cas_no": "",
    "SMILES": "N(C(C)(C)C)C=1N=C(NCC)N=C(OC)N1",
    "meta_data": {
        "InChI": "InChI=1S/C10H19N5O/c1-6-11-7-12-8(15-10(2,3)4)14-9(13-7)16-5/h6H2,1-5H3,(H2,11,12,13,14,15)",
        "InChIKey": null,
        "Canonical SMILES": "N=1C(=NC(=NC1NCC)NC(C)(C)C)OC",
        "Molecular Formula": "C<sub>10</sub>H<sub>19</sub>N<sub>5</sub>O",
        "Molecular Mass": "225.29",
        "Melting Point": "123.5 °C"
    }
}