{
    "cas_no": "1117-71-1",
    "key_name": "Methyl 4-bromo-2-butenoate",
    "cn_name": "4-溴巴豆酸甲酯;",
    "alternate_name": "2-Butenoic acid, 4-bromo-, methyl ester;Crotonic acid, 4-bromo-, methyl ester;Methyl 4-bromo-2-butenoate;Methyl 4-bromocrotonate;Methyl bromocrotonate;Methyl γ-bromocrotonate;4-Bromo-2-butenoic acid methyl ester;NSC 77073;4-Bromocrotonic acid methyl ester",
    "duplicated_cas_no": "",
    "SMILES": "C(C=CCBr)(OC)=O",
    "meta_data": {
        "InChI": "InChI=1S/C5H7BrO2/c1-8-5(7)3-2-4-6/h2-3H,4H2,1H3",
        "InChIKey": null,
        "Canonical SMILES": "O=C(OC)C=CCBr",
        "Molecular Formula": "C<sub>5</sub>H<sub>7</sub>BrO<sub>2</sub>",
        "Molecular Mass": "179.01",
        "Boiling Point": "87 °C @ Press: 15 Torr",
        "Density": "1.490 g/cm³ @ Temp: 19 °C"
    }
}