{
    "cas_no": "112501-42-5",
    "key_name": "Piperolactam A",
    "cn_name": null,
    "alternate_name": "Dibenz[<em>cd</em>,<em>f</em>]indol-4(5<em>H</em>)-one, 1-hydroxy-2-methoxy-;1-Hydroxy-2-methoxydibenz[<em>cd</em>,<em>f</em>]indol-4(5<em>H</em>)-one;Piperolactam A;Aristololactam FI;Aristolactam FI",
    "duplicated_cas_no": "",
    "SMILES": "OC=1C2=C3C(=CC=4C2=CC=CC4)NC(=O)C3=CC1OC",
    "meta_data": {
        "InChI": "InChI=1S/C16H11NO3/c1-20-12-7-10-13-11(17-16(10)19)6-8-4-2-3-5-9(8)14(13)15(12)18/h2-7,18H,1H3,(H,17,19)",
        "InChIKey": null,
        "Canonical SMILES": "O=C1NC2=CC=3C=CC=CC3C=4C(O)=C(OC)C=C1C24",
        "Molecular Formula": "C<sub>16</sub>H<sub>11</sub>NO<sub>3</sub>",
        "Molecular Mass": "265.26",
        "Melting Point": "&gt;300 °C"
    }
}