{
    "cas_no": "104-50-7",
    "key_name": "γ-Octalactone",
    "cn_name": "丙位辛内酯;alpha-丁基-gamma-丁内酯;",
    "alternate_name": "2(3<em>H</em>)-Furanone, 5-butyldihydro-;Octanoic acid, 4-hydroxy-, γ-lactone;Octanoic acid, 4-hydroxy-, lactone;Caprylic acid, γ-hydroxy-, lactone;5-Butyldihydro-2(3<em>H</em>)-furanone;γ-Octalactone;γ-Butyl-γ-butyrolactone;γ-Butylbutyrolactone;4-Butyl-γ-butyrolactone;4-Hydroxyoctanoic acid lactone;γ-Octanolactone;4-Octanolide;5-Butyl-1-oxacyclopentan-2-one;5-Butyltetrahydro-2-furanone;(±)-4-<em>n</em>-Butylbutyrolactone;(<em>RS</em>)-γ-Octalactone;(±)-γ-Octalactone;NSC 24270;NSC 26509;γ-Caprylolactone",
    "duplicated_cas_no": "57084-15-8",
    "SMILES": "C(CCC)C1OC(=O)CC1",
    "meta_data": {
        "InChI": "InChI=1S/C8H14O2/c1-2-3-4-7-5-6-8(9)10-7/h7H,2-6H2,1H3",
        "InChIKey": null,
        "Canonical SMILES": "O=C1OC(CC1)CCCC",
        "Molecular Formula": "C<sub>8</sub>H<sub>14</sub>O<sub>2</sub>",
        "Molecular Mass": "142.20",
        "Boiling Point": "132-133 °C @ Press: 20 Torr",
        "Melting Point": "91 °C",
        "Density": "0.9796 g/cm³ @ Temp: 19 °C"
    }
}