{
    "cas_no": "1264-62-6",
    "key_name": "Erythromycin ethyl succinate",
    "cn_name": "琥乙红霉素;红霉素琥珀酸乙酯;",
    "alternate_name": "Erythromycin, 2′-(ethyl butanedioate);Erythromycin, mono(ethyl succinate) (ester);Erythromycin ethyl succinate;Erythromycin, 2′-(ethyl succinate);Succinic acid, ethyl ester, monoester with erythromycin;Oxacyclotetradecane, erythromycin deriv.;Erythrocin ethyl succinate;Pediamycin;Erythroped;Evesin;Eritrocina;Esinol;EryPed;Paediathrocin;Erythro ES;Wyamycin E;Sigapedil;Durapaediat;Eryliquid;EES;Arpimycin;Erythro-Holz;Refkas;Anamycin;E-Mycin e;Monomycin",
    "duplicated_cas_no": "1334-36-7;1386-36-3;7121-45-1;12125-46-1;22372-15-2;41342-53-4;68206-56-4;314725-13-8",
    "SMILES": "O(C(CCC(OCC)=O)=O)[C@H]1[C@H](O[C@@H]2[C@@H](C)[C@H](O[C@H]3C[C@](OC)(C)[C@@H](O)[C@H](C)O3)[C@@H](C)C(=O)O[C@H](CC)[C@@](C)(O)[C@H](O)[C@@H](C)C(=O)[C@H](C)C[C@@]2(C)O)O[C@H](C)C[C@@H]1N(C)C",
    "meta_data": {
        "InChI": "InChI=1S/C43H75NO16/c1-15-29-43(11,52)36(48)24(5)33(47)22(3)20-41(9,51)38(25(6)34(26(7)39(50)57-29)59-32-21-42(10,53-14)37(49)27(8)56-32)60-40-35(28(44(12)13)19-23(4)55-40)58-31(46)18-17-30(45)54-16-2/h22-29,32,34-38,40,48-49,51-52H,15-21H2,1-14H3/t22-,23-,24+,25+,26-,27+,28+,29-,32+,34+,35-,36-,37+,38-,40+,41-,42-,43-/m1/s1",
        "InChIKey": null,
        "Canonical SMILES": "O=C(OCC)CCC(=O)OC1C(OC(C)CC1N(C)C)OC2C(C)C(OC3OC(C)C(O)C(OC)(C)C3)C(C(=O)OC(CC)C(O)(C)C(O)C(C(=O)C(C)CC2(O)C)C)C",
        "Molecular Formula": "C<sub>43</sub>H<sub>75</sub>NO<sub>16</sub>",
        "Molecular Mass": "862.05",
        "Melting Point": "109-110 °C"
    }
}