{
    "cas_no": "363-81-5",
    "key_name": "2,4,6-Trifluorobenzenamine",
    "cn_name": "2,4,6-三氟苯胺;",
    "alternate_name": "Benzenamine, 2,4,6-trifluoro-;Aniline, 2,4,6-trifluoro-;2,4,6-Trifluorobenzenamine;2,4,6-Trifluoroaniline;2-Amino-1,3,5-trifluorobenzene;1,3,5-Trifluoroaniline",
    "duplicated_cas_no": "",
    "SMILES": "NC1=C(F)C=C(F)C=C1F",
    "meta_data": {
        "InChI": "InChI=1S/C6H4F3N/c7-3-1-4(8)6(10)5(9)2-3/h1-2H,10H2",
        "InChIKey": null,
        "Canonical SMILES": "FC=1C=C(F)C(N)=C(F)C1",
        "Molecular Formula": "C<sub>6</sub>H<sub>4</sub>F<sub>3</sub>N",
        "Molecular Mass": "147.10",
        "Boiling Point": "57 °C",
        "Melting Point": "35 °C"
    }
}