{
    "cas_no": "95-72-7",
    "key_name": "Chloro-<em>p</em>-xylene",
    "cn_name": "2-氯-1,4-二甲基苯;2-氯对二甲苯;",
    "alternate_name": "Benzene, 2-chloro-1,4-dimethyl-;<em>p</em>-Xylene, 2-chloro-;2-Chloro-1,4-dimethylbenzene;2-Chloro-<em>p</em>-xylene;1-Chloro-2,5-dimethylbenzene;Chloro-<em>p</em>-xylene;2,5-Dimethylchlorobenzene;Monochloro-<em>p</em>-xylene;1,4-Dimethyl-2-chlorobenzene;NSC 60148;2,5-Dimethyl-1-chlorobenzene",
    "duplicated_cas_no": "35442-53-6",
    "SMILES": "ClC1=C(C)C=CC(C)=C1",
    "meta_data": {
        "InChI": "InChI=1S/C8H9Cl/c1-6-3-4-7(2)8(9)5-6/h3-5H,1-2H3",
        "InChIKey": null,
        "Canonical SMILES": "ClC1=CC(=CC=C1C)C",
        "Molecular Formula": "C<sub>8</sub>H<sub>9</sub>Cl",
        "Molecular Mass": "140.61",
        "Boiling Point": "187 °C",
        "Melting Point": "1.6 °C",
        "Density": "1.0589 g/cm³ @ Temp: 15 °C"
    }
}