{
    "cas_no": "522-48-5",
    "key_name": "Tetrahydrozoline hydrochloride",
    "cn_name": "盐酸四氢唑啉;盐酸四氢萘咪唑;",
    "alternate_name": "1<em>H</em>-Imidazole, 4,5-dihydro-2-(1,2,3,4-tetrahydro-1-naphthalenyl)-, hydrochloride (1:1);2-Imidazoline, 2-(1,2,3,4-tetrahydro-1-naphthyl)-, monohydrochloride;1<em>H</em>-Imidazole, 4,5-dihydro-2-(1,2,3,4-tetrahydro-1-naphthalenyl)-, monohydrochloride;2-(1,2,3,4-Tetrahydro-1-naphthyl)-2-imidazoline hydrochloride;Tyzanol hydrochloride;Tyzine hydrochloride;Visine hydrochloride;Tetrahydrozoline hydrochloride;Tyzine;Tetryzoline hydrochloride;Visine;Tizine;Yxin;Soothe;Tinarhinin;Murine Plus;Tyzanol;Vislin;2-(1,2,3,4-Tetrahydronaphthalen-1-yl)-4,5-dihydro-1<em>H</em>-imidazole hydrochloride",
    "duplicated_cas_no": "124638-40-0;8059-87-8;33067-94-6",
    "SMILES": "C1(C=2C(CCC1)=CC=CC2)C=3NCCN3.Cl",
    "meta_data": {
        "InChI": "InChI=1S/C13H16N2.ClH/c1-2-6-11-10(4-1)5-3-7-12(11)13-14-8-9-15-13;/h1-2,4,6,12H,3,5,7-9H2,(H,14,15);1H",
        "InChIKey": null,
        "Canonical SMILES": "Cl.N1=C(NCC1)C2C=3C=CC=CC3CCC2",
        "Molecular Formula": "C<sub>13</sub>H<sub>16</sub>N<sub>2</sub>.ClH",
        "Molecular Mass": "",
        "Melting Point": "256-257 °C (decomp)"
    }
}