{
    "cas_no": "1221-43-8",
    "key_name": "Auraptenol",
    "cn_name": null,
    "alternate_name": "2<em>H</em>-1-Benzopyran-2-one, 8-[(2<em>S</em>)-2-hydroxy-3-methyl-3-buten-1-yl]-7-methoxy-;Coumarin, 8-(2-hydroxy-3-methyl-3-butenyl)-7-methoxy-;2<em>H</em>-1-Benzopyran-2-one, 8-(2-hydroxy-3-methyl-3-butenyl)-7-methoxy-, (<em>S</em>)-;2<em>H</em>-1-Benzopyran-2-one, 8-[(2<em>S</em>)-2-hydroxy-3-methyl-3-butenyl]-7-methoxy-;8-[(2<em>S</em>)-2-Hydroxy-3-methyl-3-buten-1-yl]-7-methoxy-2<em>H</em>-1-benzopyran-2-one;Auraptenol;(+)-Auraptenol",
    "duplicated_cas_no": "",
    "SMILES": "C([C@@H](C(C)=C)O)C1=C2C(=CC=C1OC)C=CC(=O)O2",
    "meta_data": {
        "InChI": "InChI=1S/C15H16O4/c1-9(2)12(16)8-11-13(18-3)6-4-10-5-7-14(17)19-15(10)11/h4-7,12,16H,1,8H2,2-3H3/t12-/m0/s1",
        "InChIKey": null,
        "Canonical SMILES": "O=C1OC2=C(C=C1)C=CC(OC)=C2CC(O)C(=C)C",
        "Molecular Formula": "C<sub>15</sub>H<sub>16</sub>O<sub>4</sub>",
        "Molecular Mass": "260.29",
        "Melting Point": "109-110 °C"
    }
}