{
    "cas_no": "621-23-8",
    "key_name": "1,3,5-Trimethoxybenzene",
    "cn_name": "1,3,5-三甲氧基苯;",
    "alternate_name": "Benzene, 1,3,5-trimethoxy-;1,3,5-Trimethoxybenzene;Phloroglucinol trimethyl ether;<em>sym</em>-Trimethoxybenzene;NSC 90060;2,4,6-Trimethoxybenzene",
    "duplicated_cas_no": "",
    "SMILES": "O(C)C1=CC(OC)=CC(OC)=C1",
    "meta_data": {
        "InChI": "InChI=1S/C9H12O3/c1-10-7-4-8(11-2)6-9(5-7)12-3/h4-6H,1-3H3",
        "InChIKey": null,
        "Canonical SMILES": "O(C=1C=C(OC)C=C(OC)C1)C",
        "Molecular Formula": "C<sub>9</sub>H<sub>12</sub>O<sub>3</sub>",
        "Molecular Mass": "168.19",
        "Boiling Point": "255.5 °C",
        "Melting Point": "54.5 °C"
    }
}