{
    "cas_no": "34970-18-8",
    "key_name": "3,3-Dimethylcyclobutanecarboxylic acid",
    "cn_name": null,
    "alternate_name": "Cyclobutanecarboxylic acid, 3,3-dimethyl-;3,3-Dimethylcyclobutanecarboxylic acid;3,3-Dimethylcyclobutane-1-carboxylic acid",
    "duplicated_cas_no": "",
    "SMILES": "C(O)(=O)C1CC(C)(C)C1",
    "meta_data": {
        "InChI": "InChI=1S/C7H12O2/c1-7(2)3-5(4-7)6(8)9/h5H,3-4H2,1-2H3,(H,8,9)",
        "InChIKey": null,
        "Canonical SMILES": "O=C(O)C1CC(C)(C)C1",
        "Molecular Formula": "C<sub>7</sub>H<sub>12</sub>O<sub>2</sub>",
        "Molecular Mass": "128.17",
        "Boiling Point": "204 °C"
    }
}