{
    "cas_no": "119139-23-0",
    "key_name": "Arcyriarubin A",
    "cn_name": "双吲哚马来酰亚胺IV;2,3-双(1H-吲哚-3-基)马来酰亚胺;",
    "alternate_name": "1<em>H</em>-Pyrrole-2,5-dione, 3,4-di-1<em>H</em>-indol-3-yl-;3,4-Di-1<em>H</em>-indol-3-yl-1<em>H</em>-pyrrole-2,5-dione;Arcyriarubin A;3,4-Bis[3-indolyl]-1<em>H</em>-pyrrole-2,5-dione;bisindolylmaleimide IV;3,4-Bis(1<em>H</em>-indol-3-yl)-2,5-dihydropyrrole-2,5-dione;3,4-Bis(1<em>H</em>-indol-3-yl)pyrrole-2,5-dione",
    "duplicated_cas_no": "634199-73-8",
    "SMILES": "O=C1C(=C(C(=O)N1)C=2C=3C(NC2)=CC=CC3)C=4C=5C(NC4)=CC=CC5",
    "meta_data": {
        "InChI": "InChI=1S/C20H13N3O2/c24-19-17(13-9-21-15-7-3-1-5-11(13)15)18(20(25)23-19)14-10-22-16-8-4-2-6-12(14)16/h1-10,21-22H,(H,23,24,25)",
        "InChIKey": null,
        "Canonical SMILES": "O=C1NC(=O)C(C2=CNC=3C=CC=CC32)=C1C4=CNC=5C=CC=CC54",
        "Molecular Formula": "C<sub>20</sub>H<sub>13</sub>N<sub>3</sub>O<sub>2</sub>",
        "Molecular Mass": "327.34",
        "Melting Point": "161 °C"
    }
}