{
    "cas_no": "1849-54-3",
    "key_name": "3-Hydroxy-4-pyridinecarboxaldehyde",
    "cn_name": null,
    "alternate_name": "4-Pyridinecarboxaldehyde, 3-hydroxy-;Isonicotinaldehyde, 3-hydroxy-;3-Hydroxy-4-pyridinecarboxaldehyde;3-Hydroxy-4-pyridinealdehyde;4-Formyl-3-hydroxypyridine;3-Hydroxy-4-formylpyridine;3-Hydroxyisonicotinaldehyde;3-Hydroxypyridine-4-carbaldehyde",
    "duplicated_cas_no": "",
    "SMILES": "C(=O)C=1C(O)=CN=CC1",
    "meta_data": {
        "InChI": "InChI=1S/C6H5NO2/c8-4-5-1-2-7-3-6(5)9/h1-4,9H",
        "InChIKey": null,
        "Canonical SMILES": "O=CC=1C=CN=CC1O",
        "Molecular Formula": "C<sub>6</sub>H<sub>5</sub>NO<sub>2</sub>",
        "Molecular Mass": "123.11",
        "Melting Point": "126-128 °C"
    }
}