{
    "cas_no": "1488-42-2",
    "key_name": "Iodonium, (2-carboxyphenyl)phenyl-, inner salt",
    "cn_name": "二苯基碘酸; 二苯基碘鎓-2-羧酸内盐;(2-羧基苯基)苯基碘氢内盐;",
    "alternate_name": "Iodonium, (2-carboxyphenyl)phenyl-, inner salt;Iodonium, (<em>o</em>-carboxyphenyl)phenyl-, hydroxide, inner salt;Iodonium, (2-carboxyphenyl)phenyl-, hydroxide, inner salt;(<em>o</em>-Carboxyphenyl)phenyliodonium hydroxide, inner salt;Diphenyliodonium-2-carboxylate;NSC 86229;2-(Phenyliodonio)benzoate;2-(Phenyliodoniumyl)benzoate;2-Phenyliodoniobenzoate",
    "duplicated_cas_no": "109545-72-4",
    "SMILES": "[I+](C1=C(C([O-])=O)C=CC=C1)C2=CC=CC=C2",
    "meta_data": {
        "InChI": "InChI=1S/C13H9IO2/c15-13(16)11-8-4-5-9-12(11)14-10-6-2-1-3-7-10/h1-9H",
        "InChIKey": null,
        "Canonical SMILES": "O=C([O-])C=1C=CC=CC1[I+]C=2C=CC=CC2",
        "Molecular Formula": "C<sub>13</sub>H<sub>9</sub>IO<sub>2</sub>",
        "Molecular Mass": "",
        "Melting Point": "229-230 °C"
    }
}