{
    "cas_no": "3726-23-6",
    "key_name": "3-Pyridinecarboxamide, hydriodide (1:1)",
    "cn_name": null,
    "alternate_name": "3-Pyridinecarboxamide, hydriodide (1:1);Nicotinamide, monohydriodide;3-Pyridinecarboxamide, monohydriodide;Nicotinamide hydriodide",
    "duplicated_cas_no": "7558-85-2",
    "SMILES": "C(N)(=O)C=1C=CC=NC1.I",
    "meta_data": {
        "InChI": "InChI=1S/C6H6N2O.HI/c7-6(9)5-2-1-3-8-4-5;/h1-4H,(H2,7,9);1H",
        "InChIKey": null,
        "Canonical SMILES": "I.O=C(N)C=1C=NC=CC1",
        "Molecular Formula": "C<sub>6</sub>H<sub>6</sub>N<sub>2</sub>O.HI",
        "Molecular Mass": "",
        "Melting Point": "223-226 °C"
    }
}