{
    "cas_no": "917342-29-1",
    "key_name": "1,1-Dimethylethyl <em>N</em>-[<em>trans</em>-4-(2-hydroxyethyl)cyclohexyl]carbamate",
    "cn_name": null,
    "alternate_name": "Carbamic acid, <em>N</em>-[<em>trans</em>-4-(2-hydroxyethyl)cyclohexyl]-, 1,1-dimethylethyl ester;1,1-Dimethylethyl <em>N</em>-[<em>trans</em>-4-(2-hydroxyethyl)cyclohexyl]carbamate;<em>tert</em>-Butyl [<em>trans</em>-4-(2-hydroxyethyl)cyclohexyl]carbamate;<em>trans</em>-2-[4-[(<em>tert</em>-Butoxycarbonyl)amino]cyclohexyl]ethanol;2-[<em>trans</em>-4-[(<em>N</em>-<em>tert</em>-Butoxycarbonyl)amino]cyclohexyl]ethanol",
    "duplicated_cas_no": "",
    "SMILES": "N(C(OC(C)(C)C)=O)[C@H]1CC[C@H](CCO)CC1",
    "meta_data": {
        "InChI": "InChI=1/C13H25NO3/c1-13(2,3)17-12(16)14-11-6-4-10(5-7-11)8-9-15/h10-11,15H,4-9H2,1-3H3,(H,14,16)/t10-,11-",
        "InChIKey": null,
        "Canonical SMILES": "O=C(OC(C)(C)C)NC1CCC(CCO)CC1",
        "Molecular Formula": "C<sub>13</sub>H<sub>25</sub>NO<sub>3</sub>",
        "Molecular Mass": "243.34",
        "Melting Point": "101-103 °C"
    }
}