{
    "cas_no": "1000-70-0",
    "key_name": "Bis(trimethylsilyl)carbodiimide",
    "cn_name": "二(三甲基硅基)碳酰二亚胺;二(三甲基硅基)羰二亚胺;",
    "alternate_name": "Silanamine, <em>N</em>,<em>N</em>′-methanetetraylbis[1,1,1-trimethyl-;Carbodiimide, bis(trimethylsilyl)-;<em>N</em>,<em>N</em>′-Methanetetraylbis[1,1,1-trimethylsilanamine];<em>N</em>,<em>N</em>′-Bis(trimethylsilyl)carbodiimide;Bis(trimethylsilyl)carbodiimide;<em>N</em>,<em>N</em>-Bis(trimethylsilyl)carbodiimide;1,3-Bis(trimethylsilyl)carbodiimide;<em>N</em>,<em>N</em>′-Methanetetraylbis[1,1,1-trimethylsilylamine];2,2,6,6-Tetramethyl-3,5-diaza-2,6-disilahepta-3,4-diene",
    "duplicated_cas_no": "",
    "SMILES": "N([Si](C)(C)C)=C=N[Si](C)(C)C",
    "meta_data": {
        "InChI": "InChI=1S/C7H18N2Si2/c1-10(2,3)8-7-9-11(4,5)6/h1-6H3",
        "InChIKey": null,
        "Canonical SMILES": "C(=N[Si](C)(C)C)=N[Si](C)(C)C",
        "Molecular Formula": "C<sub>7</sub>H<sub>18</sub>N<sub>2</sub>Si<sub>2</sub>",
        "Molecular Mass": "186.40",
        "Boiling Point": "164 °C",
        "Melting Point": "-23 °C",
        "Density": "0.821 g/cm³"
    }
}