{
    "cas_no": "119-41-5",
    "key_name": "Efloxate",
    "cn_name": "乙氧黄酮;",
    "alternate_name": "Acetic acid, 2-[(4-oxo-2-phenyl-4<em>H</em>-1-benzopyran-7-yl)oxy]-, ethyl ester;Acetic acid, [(4-oxo-2-phenyl-4<em>H</em>-1-benzopyran-7-yl)oxy]-, ethyl ester;Efloxate;Ethyl [(4-oxo-2-phenyl-4<em>H</em>-1-benzopyran-7-yl)oxy]acetate;Flacethyle;Oxyflavil;Recordil;Oxiflavil;Angorlisin;Coril;Corosanin;Dilatan Kore;Domucor;Re 1-0185",
    "duplicated_cas_no": "",
    "SMILES": "O=C1C=2C(OC(=C1)C3=CC=CC=C3)=CC(OCC(OCC)=O)=CC2",
    "meta_data": {
        "InChI": "InChI=1S/C19H16O5/c1-2-22-19(21)12-23-14-8-9-15-16(20)11-17(24-18(15)10-14)13-6-4-3-5-7-13/h3-11H,2,12H2,1H3",
        "InChIKey": null,
        "Canonical SMILES": "O=C(OCC)COC1=CC=C2C(=O)C=C(OC2=C1)C=3C=CC=CC3",
        "Molecular Formula": "C<sub>19</sub>H<sub>16</sub>O<sub>5</sub>",
        "Molecular Mass": "324.33",
        "Melting Point": "123.7 °C"
    }
}